LAMMPS (22 Jul 2025 - Development - patch_2Apr2025-1550-g1d846f7d16-modified)
units           lj
dimension       3
boundary        m m m
atom_style      bpm/sphere
special_bonds   lj 0.0 1.0 1.0 coul 1.0 1.0 1.0
newton          on off
comm_modify     vel yes cutoff 3.3
region          box block -15 15 -15 15 0 60.0
create_box      1 box bond/types 1 extra/bond/per/atom 15 extra/special/per/atom 50
Created orthogonal box = (-15 -15 0) to (15 15 60)
  1 by 1 by 4 MPI processor grid

molecule        my_mol "rect.mol"
Read molecule template my_mol:
#Made with create_mol.py
  1 molecules
  0 fragments
  0 bodies
  63 atoms with max type 1
  297 bonds with max type 1
  0 angles with max type 0
  0 dihedrals with max type 0
  0 impropers with max type 0
region          wall_cyl cylinder z 0.0 0.0 10.0 EDGE EDGE side in
region          dropzone cylinder z 0.0 0.0 10.0 40.0 50.0 side in

pair_style      gran/hertz/history 1.0 NULL 0.5 NULL 0.1 1
bond_style      bpm/rotational break no smooth no
pair_coeff      1 1
bond_coeff      1 1.0 0.2 0.01 0.01 0.0 0.0 0.0 0.0 0.2 0.04 0.002 0.002

compute         nbond all nbond/atom
compute         tbond all reduce sum c_nbond
compute         bond_ids all property/local batom1 batom2
compute         bond_properties all bond/local dist b1

compute_modify  thermo_temp dynamic/dof yes

fix             1 all wall/gran hertz/history 1.0 NULL 0.5 NULL 0.1 1 zplane 0.0 NULL
fix             2 all wall/gran/region hertz/history 1.0 NULL 0.5 NULL 0.1 1 region wall_cyl
fix             3 all gravity 1e-4 vector 0 0 -1
fix             4 all deposit 40 0 1500 712511343 mol my_mol region dropzone near 2.0 vz -0.05 -0.05
fix             5 all nve/bpm/sphere

timestep        0.05
thermo_style    custom step ke pe pxx pyy pzz c_tbond
thermo          100
#dump            1 all custom 500 atomDump id radius x y z c_nbond mol
#dump            2 all local 500 bondDump c_bond_ids[*] c_bond_properties[*]
#dump_modify     2 colname 1 "id1" colname 2 "id2" colname 3 "r" colname 4 "r0"

run             100000

CITE-CITE-CITE-CITE-CITE-CITE-CITE-CITE-CITE-CITE-CITE-CITE-CITE

Your simulation uses code contributions which should be cited:

- BPM bond style: doi:10.1039/D3SM01373A

@Article{Clemmer2024,
 author =  {Clemmer, Joel T. and Monti, Joseph M. and Lechman, Jeremy B.},
 title =   {A soft departure from jamming: the compaction of deformable
            granular matter under high pressures},
 journal = {Soft Matter},
 year =    2024,
 volume =  20,
 number =  8,
 pages =   {1702--1718}
}

CITE-CITE-CITE-CITE-CITE-CITE-CITE-CITE-CITE-CITE-CITE-CITE-CITE

Generated 0 of 0 mixed pair_coeff terms from geometric mixing rule
Neighbor list info ...
  update: every = 1 steps, delay = 0 steps, check = yes
  max neighbors/atom: 2000, page size: 100000
  master list distance cutoff = 1.3
  ghost atom cutoff = 3.3
  binsize = 0.65, bins = 47 47 93
  1 neighbor lists, perpetual/occasional/extra = 1 0 0
  (1) pair gran/hertz/history, perpetual
      attributes: half, newton on, size, history
      pair build: half/size/bin/newton
      stencil: half/bin/3d
      bin: standard
Per MPI rank memory allocation (min/avg/max) = 6.515 | 6.515 | 6.515 Mbytes
   Step         KinEng         PotEng          Pxx            Pyy            Pzz          c_tbond    
         0  -0              0              0              0              0              0            
       100   0.0018406759   0              1.2842737e-05  1.3192741e-05  6.1270888e-06  9.4285714    
       200   0.0026054014   0             -9.5238084e-07  4.4390002e-07  2.276027e-06   9.4285714    
       300   0.0036876407   0             -5.2887136e-06  9.5842023e-06  8.3748246e-07  9.4285714    
       400   0.0060252036   0              2.3582937e-05  1.8361861e-05  1.2642656e-05  9.4285714    
       500   0.0074741299   0             -1.789193e-05   3.8580093e-06 -5.0297601e-06  9.4285714    
       600   0.0078175447   0              3.7847082e-06  1.354617e-05   4.1601827e-06  9.4285714    
       700   0.0075880478   0              3.1036029e-06  1.2109603e-05  4.9483946e-06  9.4285714    
       800   0.0074266449   0             -1.4461829e-05  1.231522e-05  -6.7784934e-06  9.4285714    
       900   0.0075837676   0              1.0006431e-05  1.2964224e-05  8.8504998e-06  9.4285714    
      1000   0.0076126304   0             -6.1355256e-06  1.265311e-05  -2.0447119e-06  9.4285714    
      1100   0.0075597634   0             -5.5773504e-06  1.0844777e-05 -3.296087e-06   9.4285714    
      1200   0.0075328709   0              7.0782206e-06  1.4050653e-05  8.5204975e-06  9.4285714    
      1300   0.0075974351   0             -4.7397195e-06  8.655509e-06  -3.6821711e-06  9.4285714    
      1400   0.0076539613   0              1.0961299e-06  7.9537258e-06  1.2313306e-06  9.4285714    
      1500   0.0076352731   0              3.6111676e-06  1.3125368e-05  5.3101288e-06  9.4285714    
      1600   0.006006423    0              4.7160229e-06  1.5369588e-05  5.0636281e-06  9.4285714    
      1700   0.0080558565   0              7.8138607e-06  2.5257606e-05  1.2709614e-05  9.4285714    
      1800   0.0087849017   0              4.7097929e-06  1.966114e-05   5.0951652e-07  9.4285714    
      1900   0.0087235023   0              4.7873946e-06  1.8019354e-05  2.2496878e-06  9.4285714    
      2000   0.0087131313   0              6.1634351e-06  2.642983e-05   9.0915635e-06  9.4285714    
      2100   0.008427469    0              5.3623387e-06  2.1009078e-05  5.0556283e-06  9.4285714    
      2200   0.0083345607   0              9.7696141e-06  1.8720631e-05  1.0714556e-05  9.4285714    
      2300   0.0083235047   0              6.1986454e-06  1.9747014e-05  3.9220739e-06  9.4285714    
      2400   0.0082916184   0              5.3395802e-06  1.2889835e-05  6.1613557e-06  9.4285714    
      2500   0.0083652166   0              7.0237704e-06  1.8243183e-05  9.9892969e-06  9.4285714    
      2600   0.0083853283   0              4.1611558e-06  1.8566616e-05  5.5120232e-06  9.4285714    
      2700   0.0083229797   0              4.0701286e-06  1.7705798e-05  8.0682541e-06  9.4285714    
      2800   0.0074176723   0              1.1231842e-05  1.4199577e-05  1.0018115e-05  9.4285714    
      2900   0.0073053678   0              7.9279614e-06  1.2570524e-05  9.674908e-06   9.4285714    
      3000   0.0072005684   0              1.2447603e-05  1.7406357e-05  1.0520344e-05  9.4285714    
      3100   0.0048043541   0              2.8905501e-05  2.6265306e-05  1.5509895e-05  9.4285714    
      3200   0.0045874892   0              2.4366752e-05  2.0971745e-05  1.7512312e-05  9.4285714    
      3300   0.00479499     0              6.0213482e-06  1.2638208e-05  1.4128912e-05  9.4285714    
      3400   0.0048641255   0              2.1441835e-06  9.1775799e-06  1.2309026e-05  9.4285714    
      3500   0.0048481043   0              3.3249507e-06  1.0477522e-05  1.174191e-05   9.4285714    
      3600   0.0048035761   0              3.8169025e-06  1.4538411e-05  1.2859131e-05  9.4285714    
      3700   0.0046219191   0              4.4420389e-06  1.0004242e-05  1.4136739e-05  9.4285714    
      3800   0.0046060044   0              7.9607264e-06  9.9082273e-06  1.5708136e-05  9.4285714    
      3900   0.0047638587   0              4.9188998e-06  1.3013033e-05  1.2345204e-05  9.4285714    
      4000   0.0049124607   0              5.6510434e-06  1.0154486e-05  1.8085305e-05  9.4285714    
      4100   0.0047106573   0              8.7061818e-06  1.0447188e-05  1.5757898e-05  9.4285714    
      4200   0.003655308    0              3.3017508e-05  3.8729974e-05  1.4755823e-05  9.4285714    
      4300   0.0032761502   0              2.6270899e-05  2.6447932e-05  2.6415843e-05  9.4285714    
      4400   0.0033725658   0             -4.4338353e-06 -1.8747385e-06  1.268695e-05   9.4285714    
      4500   0.0034856288   0              4.2831181e-06  3.3568463e-06  1.6551102e-05  9.4285714    
      4600   0.0030478282   0              4.6046246e-06  5.3455536e-06  2.3135532e-05  9.4285714    
      4700   0.0031168245   0             -2.3364453e-06  1.7443067e-06  6.0457431e-06  9.4285714    
      4800   0.0031397141   0              3.3093286e-06  3.9055707e-06  1.3666494e-05  9.4285714    
      4900   0.0030578915   0              6.0355903e-06  8.7494437e-06  1.7257174e-05  9.4285714    
      5000   0.0030452045   0              5.7724452e-06  1.607533e-05   7.5387141e-06  9.4285714    
      5100   0.0030773764   0              7.3897288e-06  2.1460968e-05  1.0105443e-05  9.4285714    
      5200   0.0030534891   0              7.3340945e-06  2.0052503e-05  8.0875472e-06  9.4285714    
      5300   0.0030589672   0              6.9554983e-06  1.1388616e-05  1.4195538e-05  9.4285714    
      5400   0.0032172786   0              7.0973327e-06  8.4663927e-06  1.0162239e-05  9.4285714    
      5500   0.0032559194   0              5.3565829e-06  5.1852679e-06  3.4336808e-06  9.4285714    
      5600   0.0031908895   0              4.6499293e-06  2.8091094e-06  1.8285395e-05  9.4285714    
      5700   0.0032642757   0              5.709389e-06   4.8224286e-06  1.6427642e-05  9.4285714    
      5800   0.0030990615   0              8.253728e-06   1.0455637e-06  1.659029e-05   9.4285714    
      5900   0.0026341939   0              8.4035315e-06  2.0755727e-06  4.1054501e-05  9.4285714    
      6000   0.0027655242   0              4.2483627e-06  5.4168008e-06  1.9470693e-05  9.4285714    
      6100   0.0026042044   0              3.6709033e-06  3.4725773e-06  2.1091793e-05  9.4285714    
      6200   0.0028149804   0              4.7213595e-06 -7.2919291e-07  2.3223456e-05  9.4285714    
      6300   0.0027103158   0             -6.2559439e-06  1.1706149e-06  1.7446499e-05  9.4285714    
      6400   0.0034563482   0              1.3811125e-05  3.3362682e-05  3.6303419e-05  9.4285714    
      6500   0.0039685735   0              3.9092294e-06  1.7179813e-05  2.1443394e-05  9.4285714    
      6600   0.0040730075   0             -1.730953e-05   1.0027223e-05  1.9674811e-05  9.4285714    
      6700   0.0040325237   0              1.6130719e-05  2.6480155e-05  3.2469986e-05  9.4285714    
      6800   0.0038015372   0             -9.5613177e-06  7.8642293e-06  1.7383877e-05  9.4285714    
      6900   0.0036803202   0              3.3124034e-06  2.8618724e-05  2.7477522e-05  9.4285714    
      7000   0.0033569979   0              1.6030635e-05  5.6277841e-05  4.9488628e-05  9.4285714    
      7100   0.0032876107   0             -9.0485051e-06  3.6383737e-05  2.8925748e-05  9.4285714    
      7200   0.0033908789   0              1.5638438e-05  2.0197609e-05  2.8351014e-05  9.4285714    
      7300   0.0035973172   0             -2.0912015e-06  3.6426312e-05  2.4620627e-05  9.4285714    
      7400   0.0036958962   0             -1.3556805e-05  1.1980603e-06  2.2187657e-05  9.4285714    
      7500   0.0037303282   0              1.019358e-05   5.0014967e-06  2.8719888e-05  9.4285714    
      7600   0.0033149916   0             -2.8759621e-06  1.780461e-05   2.7947196e-05  9.4285714    
      7700   0.0034044865   0              4.9316432e-06 -1.3625502e-06  3.0763568e-05  9.4285714    
      7800   0.0037019149   0              1.1189745e-05  6.7366532e-06  3.4816302e-05  9.4285714    
      7900   0.0040016102   0              8.72866e-06    6.2720753e-06  3.2812711e-05  9.4285714    
      8000   0.0042965823   0              2.3411444e-05  3.1433133e-06  3.6061346e-05  9.4285714    
      8100   0.0049063753   0              2.7128565e-05  7.8650816e-06  3.9110886e-05  9.4285714    
      8200   0.0053524021   0              2.12025e-05    2.9333878e-07  2.5869295e-05  9.4285714    
      8300   0.0052649528   0              2.829196e-05   7.4220763e-06  3.2087371e-05  9.4285714    
      8400   0.0052972403   0              2.7200353e-05  1.1049251e-05  4.289512e-05   9.4285714    
      8500   0.0053915935   0              2.9502963e-05  2.9511499e-06  1.6795138e-05  9.4285714    
      8600   0.0053485581   0              3.3169978e-05  5.1868552e-06  2.9428884e-05  9.4285714    
      8700   0.0053414432   0              2.5011908e-05 -1.1061008e-06  4.2577101e-05  9.4285714    
      8800   0.0054352149   0              2.9763406e-05 -1.4099084e-06  1.8442013e-05  9.4285714    
      8900   0.0054817226   0              3.5732941e-05  1.2926928e-06  2.5512543e-05  9.4285714    
      9000   0.0054728461   0              2.7669858e-05 -1.8779559e-06  2.9398806e-05  9.4285714    
      9100   0.0048751494   0              2.6241102e-05  7.2474542e-07  3.5364646e-05  9.4285714    
      9200   0.0049235623   0              3.1465366e-05  1.8587679e-06  3.6884993e-05  9.4285714    
      9300   0.0049408639   0              3.0163037e-05  4.7937499e-06  2.2278557e-05  9.4285714    
      9400   0.0047722286   0              3.0651769e-05  2.0118874e-06  3.8611885e-05  9.4285714    
      9500   0.004531602    0              3.0764127e-05  3.0365717e-06  4.2239782e-05  9.4285714    
      9600   0.0044175792   0              1.6872325e-05  6.3060434e-06  3.5262608e-05  9.4285714    
      9700   0.0044167782   0              2.1136761e-05  5.0187541e-06  4.607146e-05   9.4285714    
      9800   0.0045545638   0              1.9049762e-05  2.4071799e-08  4.896805e-05   9.4285714    
      9900   0.0047725617   0              3.8862135e-07 -9.2384834e-07  4.5715336e-05  9.4285714    
     10000   0.0047366384   0              9.9108301e-06  8.6495901e-06  3.7838373e-05  9.4285714    
     10100   0.0045925429   0              1.6501456e-05  9.70185e-06    5.9118233e-05  9.4285714    
     10200   0.0045829044   0              2.3104532e-05  1.0151385e-05  5.5272534e-05  9.4285714    
     10300   0.0044545165   0              3.6515058e-05  2.122633e-05   4.0700398e-05  9.4285714    
     10400   0.0041971922   0              5.0801964e-05  8.0635586e-06  5.6192525e-05  9.4285714    
     10500   0.0042997418   0              3.4801704e-05  1.6066531e-05  5.1783335e-05  9.4285714    
     10600   0.0045718981   0              1.4755365e-06  1.5228806e-05  5.7583703e-05  9.4285714    
     10700   0.0054414967   0              3.9990019e-06  8.4499803e-06  5.5171885e-05  9.4285714    
     10800   0.0056085076   0              2.8633626e-06  6.2092201e-05  6.0022519e-05  9.4285714    
     10900   0.0052604016   0              5.8779596e-06  7.9455014e-05  6.2139126e-05  9.4285714    
     11000   0.0053082441   0              9.1658519e-06  3.4007612e-05  4.2130508e-05  9.4285714    
     11100   0.0051714794   0             -3.1065631e-06  3.1123236e-05  3.7584395e-05  9.4285714    
     11200   0.0051148957   0              1.7374833e-06  5.4777946e-05  4.1123477e-05  9.4285714    
     11300   0.0053229225   0              7.3698476e-06  2.7007905e-05  4.1734229e-05  9.4285714    
     11400   0.0053758011   0              4.5797189e-06  1.1387227e-05  3.8484692e-05  9.4285714    
     11500   0.0051526413   0              2.981552e-06   4.0393591e-05  4.3663945e-05  9.4285714    
     11600   0.0050898777   0              9.2528054e-06  4.6193679e-05  3.9414288e-05  9.4285714    
     11700   0.0052834511   0              3.6915908e-06  1.5583059e-05  4.2291524e-05  9.4285714    
     11800   0.0053705654   0              5.0167887e-06  1.7777568e-05  5.2655106e-05  9.4285714    
     11900   0.005038774    0              7.9846178e-06  5.1767431e-05  5.2516307e-05  9.4285714    
     12000   0.0049088358   0              1.3229996e-05  3.8692052e-05  5.451387e-05   9.4285714    
     12100   0.0047131753   0              1.2151329e-05  1.5646142e-05  5.6905539e-05  9.4285714    
     12200   0.0047612378   0              7.2037124e-06  2.3541687e-05  5.1618792e-05  9.4285714    
     12300   0.0045291736   0              6.1042171e-06  4.7628984e-05  4.269753e-05   9.4285714    
     12400   0.0046419824   0              1.6185496e-05  4.0805231e-05  6.3641317e-05  9.4285714    
     12500   0.0047344432   0              2.4764754e-06  1.8802628e-05  4.8520156e-05  9.4285714    
     12600   0.0045536662   0              4.4271892e-06  5.2628029e-05  5.2207062e-05  9.4285714    
     12700   0.0041503561   0              1.6357247e-05  6.4219777e-05  7.1176195e-05  9.4285714    
     12800   0.0040016029   0              1.1879603e-05  2.3353629e-05  5.6103242e-05  9.4285714    
     12900   0.004171103    0              9.767379e-06   1.1371942e-05  5.7698311e-05  9.4285714    
     13000   0.0042998958   0              3.1783957e-06 -1.9279639e-06  4.7565922e-05  9.4285714    
     13100   0.0044022013   0              5.5668883e-06  1.3933065e-05  5.0604818e-05  9.4285714    
     13200   0.0043552769   0              1.0149487e-05  2.4470597e-05  1.8274094e-05  9.4285714    
     13300   0.0045028199   0              1.9030825e-06  1.2227578e-05  4.1965078e-05  9.4285714    
     13400   0.0045092683   0              2.9859337e-06  2.1014681e-05  4.8962974e-05  9.4285714    
     13500   0.0041619695   0              7.797774e-06   2.900914e-05   4.2163211e-05  9.4285714    
     13600   0.0036824743   0              1.6182687e-05  2.5555512e-05  5.5692706e-05  9.4285714    
     13700   0.0034193767   0              7.2162948e-06  1.4255379e-05  7.2093862e-05  9.4285714    
     13800   0.0036164855   0              5.3843155e-06  3.9591393e-05  7.0739751e-05  9.4285714    
     13900   0.0038578088   0              1.4313783e-05  1.7378025e-05  4.5907547e-05  9.4285714    
     14000   0.0044935875   0              2.5495452e-05  1.0141432e-05  4.5846532e-05  9.4285714    
     14100   0.0046832712   0              9.1104031e-06  1.852915e-05   5.4273774e-05  9.4285714    
     14200   0.0044686568   0              1.6934689e-05  1.9350853e-05  6.4902787e-05  9.4285714    
     14300   0.0044797079   0              2.3124797e-05  3.6035366e-05  5.6198635e-05  9.4285714    
     14400   0.0046304596   0              1.3511668e-05  5.7385191e-06  4.6890693e-05  9.4285714    
     14500   0.0046647072   0              9.4307246e-06  1.0367236e-05  5.0773988e-05  9.4285714    
     14600   0.004501411    0              1.3956748e-05  2.9384016e-05  6.0182997e-05  9.4285714    
     14700   0.0043423922   0              2.3511745e-05  2.5269088e-05  6.226637e-05   9.4285714    
     14800   0.0041117861   0              2.729497e-05   2.8828266e-05  4.8933653e-05  9.4285714    
     14900   0.0038091088   0              2.562073e-05   3.9233049e-05  6.2321952e-05  9.4285714    
     15000   0.0037323486   0              3.2541059e-05  3.9208474e-05  7.1140809e-05  9.4285714    
     15100   0.0039478751   0              4.5420105e-05  1.7695082e-05  6.4596914e-05  9.4285714    
     15200   0.0046789396   0              1.7092948e-05  1.3667877e-05  6.1202594e-05  9.4285714    
     15300   0.0049365227   0              3.6248103e-05  1.348841e-05   7.0851902e-05  9.4285714    
     15400   0.0048773919   0              4.7673089e-05  2.5973994e-05  5.5299119e-05  9.4285714    
     15500   0.0049573146   0              3.7779911e-05  1.9140411e-05  6.1162085e-05  9.4285714    
     15600   0.0049927431   0              2.0560805e-05  1.8251395e-05  6.0988282e-05  9.4285714    
     15700   0.0048703914   0              3.3189856e-05  2.1606962e-05  6.4055405e-05  9.4285714    
     15800   0.0046293837   0              6.2944957e-05  1.8863233e-05  7.8874813e-05  9.4285714    
     15900   0.0044328498   0              3.5627487e-05  2.5340889e-05  0.00012458266  9.4285714    
     16000   0.0045283026   0              2.8554883e-05  1.8623511e-05  0.00010924436  9.4285714    
     16100   0.0045247349   0              4.4396365e-05  1.8292404e-05  5.7642046e-05  9.4285714    
     16200   0.0045236357   0              3.0387119e-05  1.7555066e-05  5.491962e-05   9.4285714    
     16300   0.0046088726   0              1.7967786e-05  2.0445799e-05  5.0372662e-05  9.4285714    
     16400   0.0043337397   0              5.438195e-05   1.5302694e-05  6.2505332e-05  9.4285714    
     16500   0.0042687729   0              4.8872531e-05  1.2851892e-05  7.5358475e-05  9.4285714    
     16600   0.003967394    0              7.0452826e-06  3.1074652e-05  5.9409989e-05  9.4285714    
     16700   0.003981999    0              4.0095732e-05  1.2176047e-05  7.5313962e-05  9.4285714    
     16800   0.0040030325   0              1.6647571e-05  2.3871165e-05  7.168208e-05   9.4285714    
     16900   0.0039453755   0              1.3492785e-05  3.6847163e-05  5.9312706e-05  9.4285714    
     17000   0.0040422203   0              4.3782176e-05  1.908774e-05   6.4893021e-05  9.4285714    
     17100   0.0042850082   0              1.7326523e-05  6.1383682e-05  7.2512906e-05  9.4285714    
     17200   0.0043992395   0              1.7726935e-05  2.6471921e-05  6.6950562e-05  9.4285714    
     17300   0.0044284641   0              2.9697976e-05  3.7251867e-05  5.4556431e-05  9.4285714    
     17400   0.004349641    0              2.0535377e-05  2.9445591e-05  5.6131851e-05  9.4285714    
     17500   0.0041364121   0              7.586836e-05   2.6194654e-05  6.5687674e-05  9.4285714    
     17600   0.0043163562   0              3.3078881e-05  3.8960648e-05  4.7978756e-05  9.4285714    
     17700   0.0042848154   0              1.8758192e-05  2.1841342e-05  2.5035641e-05  9.4285714    
     17800   0.0042690812   0              6.6596206e-05  4.830089e-05   5.0141723e-05  9.4285714    
     17900   0.0043341914   0              1.1220727e-05  3.1802974e-05  3.2237655e-05  9.4285714    
     18000   0.0035850011   0              3.2192355e-05  2.025442e-05   3.569131e-05   9.4285714    
     18100   0.0033744622   0              4.670393e-05   4.6727849e-05  4.611621e-05   9.4285714    
     18200   0.0033243821   0              1.7222924e-05  2.8973304e-05  4.6692188e-05  9.4285714    
     18300   0.0034430195   0              3.3708704e-05  4.0577947e-05  4.1304444e-05  9.4285714    
     18400   0.0034771967   0              1.9020553e-05  2.1781885e-05  2.948127e-05   9.4285714    
     18500   0.0034547329   0              1.044558e-05   1.6108184e-05  4.089211e-05   9.4285714    
     18600   0.0033938592   0              2.4915703e-05  4.6313058e-05  3.9147842e-05  9.4285714    
     18700   0.0034939072   0              6.747369e-06   2.4195351e-05  3.4096046e-05  9.4285714    
     18800   0.0035298151   0              9.2622003e-06  2.0435725e-05  4.0027395e-05  9.4285714    
     18900   0.0034538544   0              1.9668285e-05  3.4858753e-05  4.0537174e-05  9.4285714    
     19000   0.003453927    0              6.068747e-06   3.1622905e-05  4.2238217e-05  9.4285714    
     19100   0.0035174754   0              1.2904225e-05  2.9369926e-05  4.388079e-05   9.4285714    
     19200   0.003344507    0              2.5196205e-05  2.7844948e-05  3.3597319e-05  9.4285714    
     19300   0.0028023333   0              3.9297495e-05  3.4208343e-05  3.6809806e-05  9.4285714    
     19400   0.0028277714   0              5.0485772e-05  3.8846638e-05  5.1440681e-05  9.4285714    
     19500   0.0030224831   0             -3.0866815e-06  2.3874092e-05  4.0211958e-05  9.4285714    
     19600   0.0029078339   0              1.3860594e-05  2.0584476e-05  4.0790999e-05  9.4285714    
     19700   0.0028081466   0              2.8762894e-05  3.7727358e-05  6.7206224e-05  9.4285714    
     19800   0.0026851701   0              1.3928003e-05  2.3857186e-05  4.7382611e-05  9.4285714    
     19900   0.0026975412   0              3.479382e-05   2.5431266e-05  5.440872e-05   9.4285714    
     20000   0.002668787    0              1.6826372e-05  3.9225429e-05  5.6975046e-05  9.4285714    
     20100   0.0026331075   0              1.1031868e-05  2.2840955e-05  4.2102584e-05  9.4285714    
     20200   0.0026679181   0              2.3878298e-05  2.2458255e-05  5.4999958e-05  9.4285714    
     20300   0.002629004    0              9.4176671e-06  1.9493877e-05  2.7108262e-05  9.4285714    
     20400   0.002675316    0              1.7137494e-05  2.4019919e-05  4.2649204e-05  9.4285714    
     20500   0.0026964559   0              1.6970036e-05  3.0887712e-05  6.0277639e-05  9.4285714    
     20600   0.0026269599   0              9.6627762e-06  2.8908435e-05  4.9241763e-05  9.4285714    
     20700   0.0026202193   0              1.9068809e-05  3.624268e-05   6.7508965e-05  9.4285714    
     20800   0.0026364111   0              1.3052041e-05  2.8559554e-05  5.9232241e-05  9.4285714    
     20900   0.0026285033   0              1.5046621e-05  2.4294001e-05  4.6914966e-05  9.4285714    
     21000   0.0026298822   0              2.4970356e-05  3.1542638e-05  5.4690587e-05  9.4285714    
     21100   0.0026039794   0              2.7585617e-05  3.1370699e-05  5.8070572e-05  9.4285714    
     21200   0.0027927291   0              3.184803e-05   3.1995367e-05  6.3361708e-05  9.4285714    
     21300   0.0029465015   0              3.1968083e-05  2.9649867e-05  4.1011672e-05  9.4285714    
     21400   0.0029674677   0              2.6487547e-05  2.0341791e-05  3.7663428e-05  9.4285714    
     21500   0.0029127557   0              3.5547953e-05  2.7404228e-05  5.5240477e-05  9.4285714    
     21600   0.0029212622   0              3.4939811e-05  2.9683693e-05  4.1142583e-05  9.4285714    
     21700   0.002893674    0              2.8732848e-05  9.7692049e-06  3.7287898e-05  9.4285714    
     21800   0.0028982035   0              3.1011361e-05  2.642124e-05   5.2822262e-05  9.4285714    
     21900   0.0029687843   0              1.9867782e-05  2.2089322e-05  3.9822643e-05  9.4285714    
     22000   0.0029604025   0              1.7429723e-05  8.7212514e-06  3.6988589e-05  9.4285714    
     22100   0.002922153    0              2.3027454e-05  2.8623103e-05  5.2689113e-05  9.4285714    
     22200   0.0029471377   0              1.8458371e-05  2.3735436e-05  4.6435011e-05  9.4285714    
     22300   0.0029822647   0              1.2807436e-05  1.7057464e-05  4.8341223e-05  9.4285714    
     22400   0.0029412433   0              1.6476084e-05  2.3461621e-05  5.6926898e-05  9.4285714    
     22500   0.0028654811   0              2.2184146e-05  2.8254893e-05  5.5214019e-05  9.4285714    
     22600   0.0027709036   0              1.8329824e-05  4.5795776e-05  8.9403973e-05  9.4285714    
     22700   0.0028335778   0              1.0775695e-05  1.5632027e-05  7.9808315e-05  9.4285714    
     22800   0.0030242492   0              1.7897072e-05  3.2868775e-05  6.5240688e-05  9.4285714    
     22900   0.0031286075   0              2.0079235e-05  4.0300145e-05  5.4009617e-05  9.4285714    
     23000   0.0030482248   0              1.0738056e-05  2.4026152e-05  6.6236508e-05  9.4285714    
     23100   0.0027835798   0              2.2867262e-05  2.3355444e-05  0.00015842767  9.4285714    
     23200   0.0029035438   0              2.7341475e-05  2.6769564e-05  0.00011372859  9.4285714    
     23300   0.0029059837   0              2.2131072e-05  2.8723684e-05  2.1058121e-05  9.4285714    
     23400   0.0029582077   0              2.2654318e-05  1.6277409e-05  7.6567328e-05  9.4285714    
     23500   0.0029515507   0              2.6858895e-05  2.2938776e-05  4.0950067e-05  9.4285714    
     23600   0.002922597    0              2.4804359e-05  2.7820999e-05  2.8949006e-05  9.4285714    
     23700   0.0028938804   0              1.9758277e-05  1.5000656e-05  7.5217444e-05  9.4285714    
     23800   0.0029112694   0              2.4735574e-05  1.2786659e-05  2.681886e-05   9.4285714    
     23900   0.00297458     0              2.3076395e-05  2.1094392e-05  4.3349728e-05  9.4285714    
     24000   0.0029355431   0              2.1283744e-05  2.5878857e-05  5.5442053e-05  9.4285714    
     24100   0.0029426022   0              3.2340563e-05  4.3616434e-05  4.8713025e-05  9.4285714    
     24200   0.0032353692   0              3.8163135e-05  6.7237827e-05  0.00011914428  9.4285714    
     24300   0.003416756    0              3.4029879e-05  6.6710036e-05  0.0001361305   9.4285714    
     24400   0.0034567614   0              3.1825981e-05  6.1020649e-05  7.1942342e-05  9.4285714    
     24500   0.0035257842   0              3.0286878e-05  6.5212873e-05  6.302126e-05   9.4285714    
     24600   0.0034125197   0              4.4932852e-05  3.4729062e-05  4.423406e-05   9.4285714    
     24700   0.0032942838   0              2.7935626e-05  3.7464715e-05  5.6162641e-05  9.4285714    
     24800   0.0031152743   0              4.3684519e-05  6.5029661e-05  6.5423532e-05  9.4285714    
     24900   0.0030976323   0              3.5682812e-05  5.4042457e-05  6.1829713e-05  9.4285714    
     25000   0.003166479    0              1.7908389e-05  5.4510292e-05  3.5283672e-05  9.4285714    
     25100   0.00312392     0              4.032974e-05   3.5569546e-05  7.098646e-05   9.4285714    
     25200   0.0031035839   0              2.1454624e-05  2.9794728e-05  2.2915366e-05  9.4285714    
     25300   0.0030440785   0              3.6672981e-05  4.8789927e-05  4.2651167e-05  9.4285714    
     25400   0.0030674938   0              3.6727163e-05  3.5770931e-05  7.6223318e-05  9.4285714    
     25500   0.0030216924   0              1.5374207e-05  3.4762863e-05  2.0258999e-05  9.4285714    
     25600   0.0027829027   0              3.6386907e-05  4.9791994e-05  3.4365964e-05  9.4285714    
     25700   0.0028908893   0              3.8372625e-05  4.1731531e-05  6.9075185e-05  9.4285714    
     25800   0.0030337526   0              1.2321178e-05  5.6156262e-05  8.6105955e-05  9.4285714    
     25900   0.0033204472   0              2.6018822e-05  6.0927484e-05  8.383897e-05   9.4285714    
     26000   0.0032663107   0              2.4231045e-05  6.1250193e-05  5.5020992e-05  9.4285714    
     26100   0.0032430815   0              3.5978616e-05  7.3751351e-05  8.0249304e-05  9.4285714    
     26200   0.0030404433   0              1.7765113e-05  4.7539025e-05  4.5538726e-05  9.4285714    
     26300   0.0030243525   0              2.9060208e-05  5.3675095e-05  5.4951344e-05  9.4285714    
     26400   0.002944279    0              4.3848485e-05  6.0190279e-05  6.0663593e-05  9.4285714    
     26500   0.0028335637   0             -1.7288669e-06  4.7587303e-05  2.2243882e-05  9.4285714    
     26600   0.0029548697   0              2.0261144e-05  5.6212188e-05  9.1812419e-05  9.4285714    
     26700   0.0030361969   0              5.2782517e-06  4.6354806e-05  4.1787163e-05  9.4285714    
     26800   0.0028389671   0              3.8189649e-06  3.481951e-05   2.05298e-05    9.4285714    
     26900   0.0027417179   0              4.1973513e-05  5.3853895e-05  0.00010008006  9.4285714    
     27000   0.0027303437   0              6.4210547e-06  3.2707443e-05  3.0071238e-05  9.4285714    
     27100   0.0027523491   0              1.8027038e-05  3.6360109e-05  6.9867182e-05  9.4285714    
     27200   0.0029156037   0              3.0271135e-05  4.5719363e-05  0.0001068368   9.4285714    
     27300   0.0030047168   0              1.9237954e-05  4.7122178e-05  2.582602e-05   9.4285714    
     27400   0.0032323735   0              3.8646553e-05  6.2154308e-05  9.0242247e-05  9.4285714    
     27500   0.0033901987   0              3.3236906e-05  5.6345808e-05  5.5391759e-05  9.4285714    
     27600   0.0033766113   0              2.5789737e-05  5.1888258e-05  2.2779241e-05  9.4285714    
     27700   0.0033426295   0              3.0636623e-05  5.9828051e-05  9.5130029e-05  9.4285714    
     27800   0.0033297236   0              3.5074949e-05  5.870062e-05   3.6565136e-05  9.4285714    
     27900   0.0031466693   0              4.575337e-05   7.3776498e-05  6.2207414e-05  9.4285714    
     28000   0.0030049995   0              3.3073435e-05  6.9285723e-05  8.9733564e-05  9.4285714    
     28100   0.0029509882   0              2.841791e-05   4.4716515e-05  3.3027101e-05  9.4285714    
     28200   0.0030798503   0              3.0756091e-05  4.6032739e-05  7.1628827e-05  9.4285714    
     28300   0.0029071346   0              3.0109055e-05  6.2579054e-05  4.8994249e-05  9.4285714    
     28400   0.0026828717   0              3.0208189e-05  6.9534703e-05  6.3494025e-05  9.4285714    
     28500   0.0027528303   0              3.5821667e-05  4.9281056e-05  4.7109236e-05  9.4285714    
     28600   0.002981446    0              4.1467479e-05  4.0801417e-05  1.021751e-05   9.4285714    
     28700   0.0033296851   0              5.0420919e-05  4.0892274e-05  4.7773097e-05  9.4285714    
     28800   0.0031952984   0              5.0573292e-05  5.0321932e-05  6.4274908e-05  9.4285714    
     28900   0.0031207744   0              5.8997767e-05  4.2887603e-05  7.149606e-05   9.4285714    
     29000   0.0030844783   0              5.1507437e-05  3.2133713e-05  5.8659606e-05  9.4285714    
     29100   0.0030444708   0              3.7838207e-05  4.7715492e-05  5.2932052e-05  9.4285714    
     29200   0.0029076346   0              6.4825889e-05  3.8273324e-05  8.322811e-05   9.4285714    
     29300   0.0029691027   0              4.7293765e-05  2.0840647e-05  5.0389245e-05  9.4285714    
     29400   0.0030121455   0              2.486458e-05   2.0405571e-05  5.6527219e-05  9.4285714    
     29500   0.0029433013   0              8.1233176e-05  4.2065734e-05  7.5315698e-05  9.4285714    
     29600   0.0027639431   0              6.1809804e-05  1.1868052e-05  7.0717475e-05  9.4285714    
     29700   0.0026837095   0              5.6854377e-05  1.9793954e-05  7.1571955e-05  9.4285714    
     29800   0.0026564164   0              0.0001008669   2.4325648e-05  6.9310201e-05  9.4285714    
     29900   0.0026296783   0              4.5719703e-05  1.3377553e-05  7.1132956e-05  9.4285714    
     30000   0.0027038164   0              6.3406866e-05  4.9847494e-05  7.0867972e-05  9.4285714    
     30100   0.0027283641   0              7.1822624e-05  6.0762907e-05  8.1446377e-05  9.4285714    
     30200   0.0027245082   0              3.0303021e-05  4.1101452e-05  5.232134e-05   9.4285714    
     30300   0.0027780662   0              5.6641562e-05  5.631607e-05   5.4990703e-05  9.4285714    
     30400   0.0027801788   0              3.659307e-05   2.9548851e-05  7.0760959e-05  9.4285714    
     30500   0.0027728766   0              3.8314728e-05  2.9460261e-05  4.5429017e-05  9.4285714    
     30600   0.0027643044   0              5.2788909e-05  5.0545226e-05  5.3353737e-05  9.4285714    
     30700   0.0024986835   0              8.8380551e-05  3.0713155e-05  5.8749143e-05  9.4285714    
     30800   0.0023866697   0              6.5288397e-05  4.4578406e-05  5.5609262e-05  9.4285714    
     30900   0.0024041227   0              6.2357792e-05  4.4749784e-05  6.2360478e-05  9.4285714    
     31000   0.002432005    0              3.2098539e-05  2.6619709e-05  5.6145087e-05  9.4285714    
     31100   0.0024948692   0              3.3093878e-05  4.7228688e-05  3.9768035e-05  9.4285714    
     31200   0.0024935366   0              4.0949227e-05  3.1265272e-05  6.9929987e-05  9.4285714    
     31300   0.0024544187   0              3.050017e-05   2.8484959e-05  3.1070749e-05  9.4285714    
     31400   0.0024703415   0              3.942284e-05   5.510338e-05   2.9579998e-05  9.4285714    
     31500   0.0024319126   0              3.1747118e-05  4.0872826e-05  5.4037157e-05  9.4285714    
     31600   0.0023850033   0              4.1497624e-05  4.8463752e-05  3.8247306e-05  9.4285714    
     31700   0.0024395025   0              2.2001808e-05  4.5886845e-05  5.9370597e-05  9.4285714    
     31800   0.0023936232   0              3.0963973e-05  3.3106312e-05  4.5821357e-05  9.4285714    
     31900   0.002285582    0              5.747906e-05   6.1801087e-05  5.9770445e-05  9.4285714    
     32000   0.0022938489   0              1.9445678e-05  3.012151e-05   7.3030759e-05  9.4285714    
     32100   0.0021874826   0              4.422427e-05   2.6163388e-05  7.210652e-05   9.4285714    
     32200   0.0022037904   0              8.1086378e-05  4.1198879e-05  8.851267e-05   9.4285714    
     32300   0.0023087203   0              1.157204e-05   1.125474e-05   5.4763149e-05  9.4285714    
     32400   0.0022902318   0              2.3677883e-06  2.4769069e-05  5.0847533e-05  9.4285714    
     32500   0.0021805121   0              5.9016264e-05  2.7607748e-05  7.6225007e-05  9.4285714    
     32600   0.0021888612   0              1.419074e-05   1.5134848e-05  5.8255136e-05  9.4285714    
     32700   0.002260667    0              7.012228e-06   3.4345816e-05  6.5313744e-05  9.4285714    
     32800   0.0021257077   0              3.914166e-05   1.6566614e-05  8.5982764e-05  9.4285714    
     32900   0.0019176174   0              3.4804962e-05  2.9890551e-05  8.1104989e-05  9.4285714    
     33000   0.0018483196   0              4.8159283e-05  3.7774082e-05  9.6880074e-05  9.4285714    
     33100   0.0019626457   0              1.1326063e-05  1.87156e-05    8.0956127e-05  9.4285714    
     33200   0.0020068131   0              9.6625819e-06  1.8792505e-05  4.8026035e-05  9.4285714    
     33300   0.0019691048   0              6.6987688e-05  2.7913244e-05  8.2917772e-05  9.4285714    
     33400   0.0019980258   0              3.6472815e-05  2.4724743e-05  7.2538346e-05  9.4285714    
     33500   0.0020256487   0              2.0126197e-05  1.4552663e-05  4.4782343e-05  9.4285714    
     33600   0.0019915409   0              2.5337352e-05  1.6129416e-05  7.3777306e-05  9.4285714    
     33700   0.0019236353   0              3.4281893e-05  2.0149198e-05  7.249554e-05   9.4285714    
     33800   0.0019658846   0              3.3271059e-05  1.8958778e-05  6.0108493e-05  9.4285714    
     33900   0.0019760621   0              8.7054032e-06  2.2154471e-05  7.0395344e-05  9.4285714    
     34000   0.0018818305   0              2.6255092e-05  1.9097909e-05  6.7792284e-05  9.4285714    
     34100   0.0018420848   0              3.6765465e-05  2.0976214e-05  7.6180423e-05  9.4285714    
     34200   0.0019290254   0              3.2716933e-05  3.6171672e-05  6.7262354e-05  9.4285714    
     34300   0.0019586939   0              1.7526028e-05  1.3984239e-05  3.6831893e-05  9.4285714    
     34400   0.0018929031   0              2.3989789e-05  1.5043443e-05  7.4619333e-05  9.4285714    
     34500   0.0018584336   0              4.6401173e-05  4.3152114e-05  9.5696084e-05  9.4285714    
     34600   0.001833217    0              5.0592202e-05  3.1344935e-05  7.4799719e-05  9.4285714    
     34700   0.0017809161   0              4.9982087e-05  3.9244559e-05  8.5039426e-05  9.4285714    
     34800   0.0017096027   0              3.4332594e-05  2.1323965e-05  7.4669737e-05  9.4285714    
     34900   0.0016277542   0              5.0094744e-05  8.6258801e-06  7.8437323e-05  9.4285714    
     35000   0.0017356837   0              4.2854382e-05  1.8332652e-05  8.2646176e-05  9.4285714    
     35100   0.0016963333   0              1.7577545e-05  7.0053644e-07  6.1095649e-05  9.4285714    
     35200   0.0015572391   0              3.3732443e-05  3.2024727e-05  8.6352721e-05  9.4285714    
     35300   0.0014743671   0              1.7922722e-05  3.394889e-05   8.911252e-05   9.4285714    
     35400   0.0014444621   0              9.644964e-06   5.544573e-06   7.941229e-05   9.4285714    
     35500   0.0014411215   0              3.3630457e-05  2.5623358e-05  9.8688158e-05  9.4285714    
     35600   0.0014485633   0              1.6887842e-05  2.6273213e-05  6.6430504e-05  9.4285714    
     35700   0.0015016437   0              1.5451563e-05  1.6439226e-05  5.4273262e-05  9.4285714    
     35800   0.0015211658   0              2.0281894e-05  2.5101058e-05  7.0470357e-05  9.4285714    
     35900   0.001466604    0              2.770996e-06   1.1440582e-05  6.5181366e-05  9.4285714    
     36000   0.0014501566   0              2.8462028e-05  1.3432249e-05  6.4927395e-05  9.4285714    
     36100   0.0015241971   0              1.8251997e-05  2.0128487e-05  5.1457694e-05  9.4285714    
     36200   0.001645158    0              1.8069942e-06  1.7403698e-05  6.5873689e-05  9.4285714    
     36300   0.0016387367   0              3.2541715e-05  3.0436306e-05  7.65556e-05    9.4285714    
     36400   0.0018472487   0              2.3734772e-05  4.4398892e-05  7.3016847e-05  9.4285714    
     36500   0.0019443333   0              1.4094082e-05  3.6130319e-05  3.6019354e-05  9.4285714    
     36600   0.0019225842   0              2.9878573e-05  3.8531124e-05  4.8951901e-05  9.4285714    
     36700   0.0019003629   0              1.5144859e-05  3.8912532e-05  7.8067424e-05  9.4285714    
     36800   0.0019076107   0              2.3461415e-05  4.703674e-05   4.3268047e-05  9.4285714    
     36900   0.0019243286   0              2.0499306e-05  5.5681543e-05  4.8449806e-05  9.4285714    
     37000   0.001885329    0              1.1549757e-05  4.7974957e-05  6.28639e-05    9.4285714    
     37100   0.0018412473   0              3.9677166e-05  5.425041e-05   6.1386002e-05  9.4285714    
     37200   0.0017021834   0              2.2142149e-05  6.3801587e-05  5.4559653e-05  9.4285714    
     37300   0.0016220199   0              1.1895023e-05  3.2364849e-05  3.8101812e-05  9.4285714    
     37400   0.0015948507   0              4.0294104e-05  4.2769062e-05  6.82252e-05    9.4285714    
     37500   0.0016023622   0              2.645865e-05   5.9399162e-05  8.2860131e-05  9.4285714    
     37600   0.0016081512   0              1.0329166e-05  3.9193016e-05  5.9066575e-05  9.4285714    
     37700   0.0016505121   0              2.9022455e-05  4.590777e-05   8.5292918e-05  9.4285714    
     37800   0.0016795834   0              2.4367973e-05  4.1845982e-05  8.1941179e-05  9.4285714    
     37900   0.0016469159   0              7.4597713e-06  3.1081106e-05  4.9309429e-05  9.4285714    
     38000   0.0016585735   0              3.7146574e-05  5.7463652e-05  7.7038158e-05  9.4285714    
     38100   0.0016197538   0              2.568048e-05   2.613918e-05   6.1265712e-05  9.4285714    
     38200   0.0015995136   0              2.0926043e-05  2.6620232e-05  5.790837e-05   9.4285714    
     38300   0.001575365    0              2.7905548e-05  5.3104847e-05  6.909554e-05   9.4285714    
     38400   0.0016118738   0              9.1556819e-06  2.5878921e-05  5.6520704e-05  9.4285714    
     38500   0.001627926    0              1.9916706e-05  1.0741667e-05  5.5911116e-05  9.4285714    
     38600   0.0015398998   0              2.5754895e-05  3.2514831e-05  7.9193031e-05  9.4285714    
     38700   0.0015297278   0              1.7475326e-05  3.0940483e-05  6.989626e-05   9.4285714    
     38800   0.001519349    0              1.603988e-05   3.4569959e-05  7.0841531e-05  9.4285714    
     38900   0.0014566171   0              1.3118314e-05  3.7878039e-05  6.5156752e-05  9.4285714    
     39000   0.00137148     0              2.6562922e-05  4.648487e-05   7.9359408e-05  9.4285714    
     39100   0.0013853185   0              1.8560351e-05  2.9058736e-05  7.4823973e-05  9.4285714    
     39200   0.0014624493   0              9.8859841e-06  1.3917289e-05  6.3259008e-05  9.4285714    
     39300   0.0014683633   0              2.7317771e-05  2.1151338e-05  7.6262316e-05  9.4285714    
     39400   0.0015002752   0              3.1692123e-05  2.6084929e-05  6.9525219e-05  9.4285714    
     39500   0.0016157937   0              3.7876334e-05  3.0183847e-05  7.0988739e-05  9.4285714    
     39600   0.0017222644   0              4.1766323e-05  1.8940815e-05  7.6874177e-05  9.4285714    
     39700   0.0017366667   0              6.268265e-05   3.875855e-05   6.162349e-05   9.4285714    
     39800   0.0016875096   0              6.0460561e-05  5.0265999e-05  7.5641784e-05  9.4285714    
     39900   0.0017075675   0              5.0740814e-05  4.3208118e-05  7.5319397e-05  9.4285714    
     40000   0.0017295614   0              3.1948178e-05  2.7295879e-05  5.3686792e-05  9.4285714    
     40100   0.0017046337   0              3.4213478e-05 -5.3296061e-06  6.2254534e-05  9.4285714    
     40200   0.0016603479   0              4.010844e-05   2.9815463e-05  6.5355784e-05  9.4285714    
     40300   0.0016725095   0              4.0928404e-05  3.1590351e-05  5.9530763e-05  9.4285714    
     40400   0.0016567124   0              5.6539177e-05  5.6694466e-06  6.3277469e-05  9.4285714    
     40500   0.0015894914   0              6.0002605e-05  5.1408915e-05  6.7258053e-05  9.4285714    
     40600   0.0015202048   0              5.5888787e-05  4.6379438e-05  7.8689276e-05  9.4285714    
     40700   0.0015232561   0              5.6393613e-05  2.2809194e-05  7.9713909e-05  9.4285714    
     40800   0.0015440294   0              4.4693856e-05  2.9519152e-05  7.4253182e-05  9.4285714    
     40900   0.0014790936   0              3.2781481e-05  2.9657273e-05  8.7518861e-05  9.4285714    
     41000   0.0014438346   0              4.753218e-05   5.9968251e-05  8.993006e-05   9.4285714    
     41100   0.001489124    0              4.0869258e-05  3.82388e-05    6.3707933e-05  9.4285714    
     41200   0.0015164352   0              2.4323139e-05  2.6251275e-05  6.3938828e-05  9.4285714    
     41300   0.0014413264   0              3.7426925e-05  4.0199885e-05  8.0013729e-05  9.4285714    
     41400   0.0014461815   0              4.1830051e-05  2.0863586e-05  7.5546018e-05  9.4285714    
     41500   0.0014413437   0              3.4453445e-05  2.595803e-05   6.0138666e-05  9.4285714    
     41600   0.0014517294   0              1.7453931e-05  2.0630425e-05  9.9637948e-05  9.4285714    
     41700   0.0014236261   0              2.6405456e-05  2.6280631e-05  6.988071e-05   9.4285714    
     41800   0.0013866845   0              4.702003e-05   4.8604613e-05  5.9944676e-05  9.4285714    
     41900   0.0013988588   0              2.9220261e-05  3.448141e-05   8.4996427e-05  9.4285714    
     42000   0.0014106759   0              2.0029626e-05  2.8193276e-05  5.848703e-05   9.4285714    
     42100   0.0014347066   0              4.3925548e-05  4.4871069e-05  7.1123614e-05  9.4285714    
     42200   0.0015179504   0              4.776427e-05   4.7983573e-05  7.1397265e-05  9.4285714    
     42300   0.0015495282   0              3.1121701e-05  4.7753119e-05  5.5612085e-05  9.4285714    
     42400   0.0015330013   0              3.7915024e-05  4.6608585e-05  9.3123701e-05  9.4285714    
     42500   0.0015006374   0              4.6904683e-05  5.0251248e-05  6.6037275e-05  9.4285714    
     42600   0.0014815201   0              4.7637952e-05  6.2838708e-05  5.0790858e-05  9.4285714    
     42700   0.0015035622   0              4.7003896e-05  4.6119932e-05  7.9735401e-05  9.4285714    
     42800   0.001510002    0              4.0924975e-05  3.0002205e-05  6.5519384e-05  9.4285714    
     42900   0.001486893    0              4.4240243e-05  3.8912841e-05  7.4463061e-05  9.4285714    
     43000   0.0014596125   0              5.3390515e-05  3.6547495e-05  7.8746855e-05  9.4285714    
     43100   0.0014402863   0              4.4447962e-05  2.8677464e-05  7.6794775e-05  9.4285714    
     43200   0.0014294391   0              2.7384987e-05  3.1778734e-05  8.391794e-05   9.4285714    
     43300   0.0014130015   0              3.1309055e-05  3.6984097e-05  7.5469723e-05  9.4285714    
     43400   0.0013590622   0              4.1380447e-05  2.6340316e-05  8.3877897e-05  9.4285714    
     43500   0.0013294464   0              3.2878708e-05  4.5607517e-05  9.4610107e-05  9.4285714    
     43600   0.0013684274   0              4.7074831e-05  3.8112551e-05  7.9574258e-05  9.4285714    
     43700   0.0014788317   0              5.172435e-05   4.0666366e-05  6.4621849e-05  9.4285714    
     43800   0.0016049064   0              4.7437113e-05  7.3989164e-05  8.4851353e-05  9.4285714    
     43900   0.0016863537   0              7.0088025e-05  5.3425828e-05  8.20764e-05    9.4285714    
     44000   0.0016969667   0              6.0718506e-05  6.8601553e-05  4.2089781e-05  9.4285714    
     44100   0.0016728308   0              4.6104304e-05  6.2469774e-05  8.1326153e-05  9.4285714    
     44200   0.0016125428   0              6.615777e-05   5.341561e-05   0.00010738175  9.4285714    
     44300   0.0016460565   0              5.6854689e-05  7.0757298e-05  8.5866171e-05  9.4285714    
     44400   0.0016380627   0              4.7342223e-05  4.7947528e-05  7.578687e-05   9.4285714    
     44500   0.001561749    0              5.5767022e-05  6.6584861e-05  8.4438764e-05  9.4285714    
     44600   0.0015422814   0              6.025534e-05   8.8893576e-05  9.2544829e-05  9.4285714    
     44700   0.0012179052   0              6.165839e-05   5.4809945e-05  6.1803604e-05  9.4285714    
     44800   0.0011990324   0              5.552928e-05   5.2056632e-05  6.9957978e-05  9.4285714    
     44900   0.001239264    0              4.7151223e-05  4.2113793e-05  6.7377463e-05  9.4285714    
     45000   0.001288125    0              4.64251e-05    4.2330237e-05  6.6082076e-05  9.4285714    
     45100   0.0012827652   0              5.9457866e-05  2.5370516e-05  6.361286e-05   9.4285714    
     45200   0.001309305    0              5.2748624e-05  2.7598115e-05  6.1790539e-05  9.4285714    
     45300   0.0013173207   0              5.3592248e-05  2.5873491e-05  5.3544232e-05  9.4285714    
     45400   0.0013869858   0              6.5389549e-05  2.491857e-05   5.7839602e-05  9.4285714    
     45500   0.0014300951   0              5.2682979e-05  8.8010381e-06  6.1313795e-05  9.4285714    
     45600   0.0014654229   0              5.653501e-05   1.0684719e-05  6.273671e-05   9.4285714    
     45700   0.0015319474   0              7.0567986e-05  3.4005378e-05  7.5552156e-05  9.4285714    
     45800   0.0016327088   0              6.501588e-05   2.0184446e-05  7.9233956e-05  9.4285714    
     45900   0.0015532193   0              7.5826819e-05  5.6576189e-05  0.00011640839  9.4285714    
     46000   0.0014671979   0              8.3344152e-05  9.0867873e-05  0.00012229565  9.4285714    
     46100   0.0014740617   0              6.0645506e-05  3.9791154e-05  8.5043727e-05  9.4285714    
     46200   0.0015061364   0              6.1424049e-05  4.1872638e-05  7.7216457e-05  9.4285714    
     46300   0.0015363374   0              5.2109799e-05  3.7995755e-05  6.8527359e-05  9.4285714    
     46400   0.0015427905   0              4.1564821e-05 -8.9544222e-06  6.3242647e-05  9.4285714    
     46500   0.0015345807   0              5.6478409e-05  5.0134532e-05  6.7498135e-05  9.4285714    
     46600   0.0015315791   0              4.7218046e-05  4.7259168e-05  5.3095757e-05  9.4285714    
     46700   0.0015766283   0              4.9345551e-05  2.0884295e-05  5.8528421e-05  9.4285714    
     46800   0.0016174934   0              6.5001466e-05  5.5529304e-05  5.9363125e-05  9.4285714    
     46900   0.0016258562   0              5.0934405e-05  5.2453037e-05  4.6027251e-05  9.4285714    
     47000   0.0016836156   0              6.8621658e-05  7.855288e-05   6.2195151e-05  9.4285714    
     47100   0.0017902981   0              7.7158935e-05  8.631494e-05   6.7562935e-05  9.4285714    
     47200   0.0018713895   0              7.1053256e-05  5.5918516e-05  5.2017022e-05  9.4285714    
     47300   0.0018098745   0              7.3491772e-05  6.0752779e-05  4.6445866e-05  9.4285714    
     47400   0.0017677971   0              6.1134743e-05  6.0334487e-05  5.7362227e-05  9.4285714    
     47500   0.00173879     0              5.5583108e-05  5.2512875e-05  3.646225e-05   9.4285714    
     47600   0.0014879566   0              6.7745322e-05  4.1728058e-05  5.4891911e-05  9.4285714    
     47700   0.0013978688   0              5.4095656e-05  3.4225308e-05  6.2258157e-05  9.4285714    
     47800   0.001485641    0              5.2572684e-05  6.4241479e-05  3.9677335e-05  9.4285714    
     47900   0.001569345    0              4.6443681e-05  4.019895e-05   4.6722136e-05  9.4285714    
     48000   0.0015797053   0              5.4339271e-05  1.6715737e-05  4.9438686e-05  9.4285714    
     48100   0.0015787942   0              5.2293548e-05  4.1801624e-05  5.3602889e-05  9.4285714    
     48200   0.0016734716   0              5.6659351e-05  5.2476443e-05  5.9276401e-05  9.4285714    
     48300   0.0018178973   0              6.7587899e-05  5.3925402e-05  7.5695724e-05  9.4285714    
     48400   0.0016408072   0              7.6021781e-05  3.5332586e-05  7.423528e-05   9.4285714    
     48500   0.0015180127   0              5.4136927e-05  4.5351896e-05  6.1013597e-05  9.4285714    
     48600   0.0015714246   0              4.1280412e-05  4.5835402e-05  4.4852452e-05  9.4285714    
     48700   0.0015651707   0              3.5387044e-05  2.7172475e-05  4.3389172e-05  9.4285714    
     48800   0.0015502994   0              5.3050031e-05  2.8192425e-05  4.780275e-05   9.4285714    
     48900   0.0015767096   0              2.3516501e-05  3.4913265e-05  4.9068241e-05  9.4285714    
     49000   0.001497117    0              2.7618092e-05  3.5606663e-05  4.270338e-05   9.4285714    
     49100   0.0014645889   0              3.782625e-05   5.82114e-05    9.3141168e-05  9.4285714    
     49200   0.0013605988   0              5.5927774e-05  6.6087066e-05  9.0024103e-05  9.4285714    
     49300   0.0013046452   0              7.6171893e-05  4.2582801e-05  6.281726e-05   9.4285714    
     49400   0.00126249     0              6.0977611e-06  3.2518347e-05  7.8729319e-05  9.4285714    
     49500   0.0012591073   0              4.0070541e-05  4.1157054e-05  6.55184e-05    9.4285714    
     49600   0.0013496941   0              2.8359114e-05  3.8279088e-05  4.9021164e-05  9.4285714    
     49700   0.0014143399   0             -1.2648293e-05  2.669301e-05   6.391785e-05   9.4285714    
     49800   0.0013359192   0              2.9590085e-05  4.9524468e-05  5.5885841e-05  9.4285714    
     49900   0.0013068005   0              2.4798963e-05  4.0847149e-05  7.1549636e-05  9.4285714    
     50000   0.0013425699   0              3.034939e-06   2.4141308e-05  7.0223142e-05  9.4285714    
     50100   0.0013001293   0              1.6524888e-05  5.7670267e-05  5.5184587e-05  9.4285714    
     50200   0.0012197279   0              2.2989742e-05  5.5116207e-05  8.3235181e-05  9.4285714    
     50300   0.0012271487   0              3.8802337e-05  2.6262795e-05  6.4660488e-05  9.4285714    
     50400   0.001291317    0              1.2661e-05     3.4693083e-05  3.9372092e-05  9.4285714    
     50500   0.0012827893   0              2.8612559e-06  4.1945047e-05  6.0557227e-05  9.4285714    
     50600   0.0012564103   0              4.2422735e-05  4.1169468e-05  4.9258036e-05  9.4285714    
     50700   0.0012729248   0              2.6096527e-05  4.1288418e-05  3.8953273e-05  9.4285714    
     50800   0.0012274144   0              3.9482188e-05  5.3452721e-05  4.9908655e-05  9.4285714    
     50900   0.0011574062   0              5.9316706e-05  4.6870128e-05  6.7997494e-05  9.4285714    
     51000   0.0011296857   0              7.727098e-06   2.8698541e-05  5.5842025e-05  9.4285714    
     51100   0.0011388779   0              6.0718142e-05  4.1306192e-05  6.7861576e-05  9.4285714    
     51200   0.0011937387   0              7.066783e-05   4.2834494e-05  5.0727869e-05  9.4285714    
     51300   0.0012081275   0              6.9960047e-06  2.8076083e-05  4.8289505e-05  9.4285714    
     51400   0.0012502837   0              6.3509848e-05  3.35021e-05    9.5995137e-05  9.4285714    
     51500   0.0012969542   0              6.1043789e-05  3.4230636e-05  5.1503225e-05  9.4285714    
     51600   0.0013220502   0              2.9168865e-05  3.83825e-05    5.4431981e-05  9.4285714    
     51700   0.0013081034   0              4.9582069e-05  4.2197084e-05  0.00011031135  9.4285714    
     51800   0.0012828263   0              4.569917e-05   3.3151705e-05  7.4881048e-05  9.4285714    
     51900   0.0012720741   0              5.8805342e-05  4.6305957e-05  8.3902806e-05  9.4285714    
     52000   0.0012604971   0              5.2948167e-05  3.5372954e-05  7.7302315e-05  9.4285714    
     52100   0.0012342123   0              2.668491e-05   2.0142345e-05  6.6211682e-05  9.4285714    
     52200   0.0011854361   0              6.3813416e-05  5.5651791e-05  0.00011271647  9.4285714    
     52300   0.0011781501   0              6.1807577e-05  4.7368873e-05  8.6948299e-05  9.4285714    
     52400   0.0011446275   0              3.5627079e-05  5.2138643e-05  7.6026051e-05  9.4285714    
     52500   0.0011322278   0              5.4511292e-05  7.7333494e-05  0.00011183146  9.4285714    
     52600   0.0011638797   0              4.9025588e-05  4.1838852e-05  7.0845404e-05  9.4285714    
     52700   0.0011961285   0              4.9345142e-05  5.2630672e-05  8.9296697e-05  9.4285714    
     52800   0.0012198161   0              5.7527971e-05  5.8240821e-05  0.00010124816  9.4285714    
     52900   0.001273751    0              5.3738338e-05  6.168997e-05   9.141532e-05   9.4285714    
     53000   0.0013484632   0              7.2465344e-05  8.226475e-05   9.2568236e-05  9.4285714    
     53100   0.0013289922   0              7.2879301e-05  6.7917236e-05  7.3229527e-05  9.4285714    
     53200   0.0012944645   0              4.9698268e-05  6.5834267e-05  0.00010086307  9.4285714    
     53300   0.0013235344   0              6.6277359e-05  6.6421605e-05  9.8260892e-05  9.4285714    
     53400   0.0012924925   0              6.5805401e-05  5.5419618e-05  4.4142506e-05  9.4285714    
     53500   0.0012783474   0              7.1057578e-05  6.1513476e-05  0.00011038284  9.4285714    
     53600   0.0012680627   0              7.8362175e-05  6.5421064e-05  0.00010438102  9.4285714    
     53700   0.0012796382   0              7.0664927e-05  6.2367456e-05  6.3143821e-05  9.4285714    
     53800   0.0012854235   0              6.016806e-05   6.28356e-05    7.8130568e-05  9.4285714    
     53900   0.0012602979   0              6.1883931e-05  5.5269182e-05  8.3402959e-05  9.4285714    
     54000   0.0012274731   0              6.7710325e-05  5.8794203e-05  9.7066392e-05  9.4285714    
     54100   0.0012315731   0              5.3006642e-05  5.7999381e-05  6.4202226e-05  9.4285714    
     54200   0.0011860462   0              4.8120173e-05  5.5712798e-05  5.0183733e-05  9.4285714    
     54300   0.0011307587   0              3.8568386e-05  5.7142289e-05  8.1135744e-05  9.4285714    
     54400   0.0011254036   0              4.6849471e-05  4.3135281e-05  8.1869874e-05  9.4285714    
     54500   0.0011445325   0              4.6730622e-05  4.4885187e-05  7.5149124e-05  9.4285714    
     54600   0.001135296    0              4.6769034e-05  5.3352321e-05  5.3992858e-05  9.4285714    
     54700   0.0011252624   0              4.3633074e-05  4.1379276e-05  7.9637475e-05  9.4285714    
     54800   0.0011174123   0              5.2843156e-05  4.063133e-05   8.2824912e-05  9.4285714    
     54900   0.0010853378   0              5.2849823e-05  5.0687621e-05  7.858578e-05   9.4285714    
     55000   0.00091825741  0              7.6506837e-05  9.5182976e-05  0.00012002574  9.4285714    
     55100   0.00081806475  0              6.1064783e-05  0.00010584402  0.00010457692  9.4285714    
     55200   0.00086585159  0              3.3155719e-05  3.9402558e-05  7.1518652e-05  9.4285714    
     55300   0.00091265818  0              4.4302518e-05  3.7568919e-05  7.1916634e-05  9.4285714    
     55400   0.00086088874  0              3.5485399e-05  3.6344553e-05  5.5659439e-05  9.4285714    
     55500   0.00082243334  0              3.4433966e-05  4.1488223e-05  5.8604015e-05  9.4285714    
     55600   0.00087357984  0              3.4742088e-05  6.6633287e-05  8.0039015e-05  9.4285714    
     55700   0.0008692441   0              2.5508337e-05  2.6429395e-05  4.8378627e-05  9.4285714    
     55800   0.00089698302  0              3.8931215e-05  5.8027552e-05  6.4671391e-05  9.4285714    
     55900   0.00089756804  0              3.3208627e-05  3.8916753e-05  6.2654765e-05  9.4285714    
     56000   0.00089173201  0              3.0316741e-05  2.6023349e-05  5.2559959e-05  9.4285714    
     56100   0.00088396442  0              4.2666411e-05  5.7442073e-05  6.9669274e-05  9.4285714    
     56200   0.00088840391  0              2.3033892e-05  2.7271768e-05  5.7626685e-05  9.4285714    
     56300   0.00086888083  0              2.5300231e-05  3.3460894e-05  6.7425268e-05  9.4285714    
     56400   0.0008195613   0              4.096235e-05   5.9576221e-05  9.2381894e-05  9.4285714    
     56500   0.00083135224  0              2.7447155e-05  2.6912145e-05  6.9990461e-05  9.4285714    
     56600   0.00083562389  0              2.3897502e-05  2.9953166e-05  7.4873676e-05  9.4285714    
     56700   0.00082436951  0              4.6403993e-05  4.4596045e-05  7.7802802e-05  9.4285714    
     56800   0.00080128454  0              3.8555457e-05  3.1357057e-05  5.647557e-05   9.4285714    
     56900   0.00078981035  0              4.1359507e-05  4.3505003e-05  7.241494e-05   9.4285714    
     57000   0.00078586225  0              4.0506909e-05  4.2850749e-05  6.5884322e-05  9.4285714    
     57100   0.00078916693  0              4.178575e-05   3.9825175e-05  6.7213746e-05  9.4285714    
     57200   0.00077365749  0              4.766364e-05   5.3737805e-05  7.7886698e-05  9.4285714    
     57300   0.00078345511  0              4.6078717e-05  5.5180603e-05  5.9215243e-05  9.4285714    
     57400   0.00079107474  0              4.5490598e-05  5.3074695e-05  4.8395067e-05  9.4285714    
     57500   0.00079220227  0              4.8323857e-05  4.8530791e-05  5.860095e-05   9.4285714    
     57600   0.00077979339  0              5.2162562e-05  2.2987016e-05  5.8375049e-05  9.4285714    
     57700   0.00078608076  0              4.6576754e-05  3.021822e-05   5.192676e-05   9.4285714    
     57800   0.00078878175  0              3.2189049e-05  2.9440112e-05  5.0932992e-05  9.4285714    
     57900   0.00077861224  0              2.8222847e-05  2.5337728e-05  6.2762567e-05  9.4285714    
     58000   0.00079380272  0              2.8468553e-05  2.994577e-05   5.6073575e-05  9.4285714    
     58100   0.00079225471  0              2.186816e-05   2.6581224e-05  4.8995393e-05  9.4285714    
     58200   0.00073665936  0              3.5314721e-05  4.6623743e-05  7.6581095e-05  9.4285714    
     58300   0.00070688837  0              4.021219e-05   5.5825992e-05  7.1903297e-05  9.4285714    
     58400   0.00071611372  0              2.9831153e-05  4.8627125e-05  6.6545362e-05  9.4285714    
     58500   0.00072483198  0              2.6753389e-05  4.6485829e-05  7.2631749e-05  9.4285714    
     58600   0.0007351691   0              2.1099794e-05  3.5736723e-05  6.5755371e-05  9.4285714    
     58700   0.00073590924  0              1.9061542e-05  3.9686648e-05  6.4329755e-05  9.4285714    
     58800   0.00074183154  0              3.0789698e-05  4.0495246e-05  6.9335969e-05  9.4285714    
     58900   0.00073998718  0              3.0416344e-05  2.4907946e-05  6.9445147e-05  9.4285714    
     59000   0.00073929475  0              2.5562862e-05  2.8736957e-05  7.2875068e-05  9.4285714    
     59100   0.00071790614  0              4.3452017e-05  4.9938109e-05  6.8693283e-05  9.4285714    
     59200   0.00068098606  0              6.533829e-05   5.1908115e-05  6.1640636e-05  9.4285714    
     59300   0.000669531    0              5.7426069e-05  4.1119263e-05  6.5326889e-05  9.4285714    
     59400   0.00067740846  0              4.5713273e-05  3.1152773e-05  5.8094208e-05  9.4285714    
     59500   0.00068645739  0              4.6506368e-05  3.1787222e-05  6.8030215e-05  9.4285714    
     59600   0.00065223009  0              3.340199e-05   2.588824e-05   8.0480883e-05  9.4285714    
     59700   0.00061018506  0              4.6794468e-05  2.4680076e-05  9.1072356e-05  9.4285714    
     59800   0.00060223028  0              5.2317517e-05  3.724215e-05   8.9548282e-05  9.4285714    
     59900   0.00058493162  0              2.102763e-05   2.4520505e-05  7.9950291e-05  9.4285714    
     60000   0.00057093682  0              4.2826465e-05  2.5826541e-05  7.6616643e-05  9.4285714    
     60100   0.00056211304  0              5.4207366e-05  2.9723742e-05  6.4787445e-05  9.4285714    
     60200   0.00058031435  0              3.8888069e-05  2.059913e-05   7.170529e-05   9.4285714    
     60300   0.00057909642  0              4.707507e-05   2.8461859e-05  7.4220019e-05  9.4285714    
     60400   0.00058318468  0              3.9365541e-05  3.4001019e-05  7.2507643e-05  9.4285714    
     60500   0.00058895344  0              3.5036704e-05  2.4586022e-05  7.0454469e-05  9.4285714    
     60600   0.00058250376  0              4.728713e-05   3.2564452e-05  5.9764753e-05  9.4285714    
     60700   0.00057142619  0              3.6196692e-05  2.5108101e-05  7.4531406e-05  9.4285714    
     60800   0.00058009294  0              4.2087368e-05  1.943163e-05   7.9536107e-05  9.4285714    
     60900   0.00056937593  0              4.5065644e-05  2.9939819e-05  4.8147216e-05  9.4285714    
     61000   0.00057015359  0              3.3708174e-05  2.6348076e-05  6.4130811e-05  9.4285714    
     61100   0.00057913017  0              3.7890273e-05  2.5656415e-05  7.4770294e-05  9.4285714    
     61200   0.00057517291  0              4.0318369e-05  2.8817687e-05  6.2291555e-05  9.4285714    
     61300   0.00056965237  0              4.0760849e-05  2.7022058e-05  7.1157146e-05  9.4285714    
     61400   0.0005765101   0              4.6572181e-05  3.0317909e-05  7.0493214e-05  9.4285714    
     61500   0.00057026728  0              4.7536879e-05  2.6913145e-05  7.1752015e-05  9.4285714    
     61600   0.00054394886  0              5.2204976e-05  3.0467134e-05  8.064426e-05   9.4285714    
     61700   0.0005282147   0              4.8847294e-05  3.9357248e-05  8.1995793e-05  9.4285714    
     61800   0.00053338771  0              5.0479798e-05  3.4127454e-05  8.0173037e-05  9.4285714    
     61900   0.00053458285  0              4.4066855e-05  3.2312536e-05  7.1682113e-05  9.4285714    
     62000   0.00052393276  0              4.9873122e-05  3.3616056e-05  7.2809235e-05  9.4285714    
     62100   0.0004980484   0              5.9755667e-05  2.6029466e-05  7.7423821e-05  9.4285714    
     62200   0.00049369187  0              3.0216125e-05  2.3008359e-05  6.5461594e-05  9.4285714    
     62300   0.00050362959  0              3.6088301e-05  1.9795611e-05  5.798608e-05   9.4285714    
     62400   0.0005085823   0              4.2876207e-05  2.3009503e-05  5.0385013e-05  9.4285714    
     62500   0.00051125372  0              2.6911188e-05  2.6041032e-05  6.0833706e-05  9.4285714    
     62600   0.00049409671  0              4.6464161e-05  2.4839175e-05  6.9696923e-05  9.4285714    
     62700   0.00049534996  0              4.038616e-05   3.1238817e-05  6.45015e-05    9.4285714    
     62800   0.00051290818  0              2.5200585e-05  2.0417534e-05  6.1354673e-05  9.4285714    
     62900   0.00050911172  0              3.7657108e-05  1.5160979e-05  5.642647e-05   9.4285714    
     63000   0.00049147789  0              3.1147633e-05  2.3454167e-05  6.1055851e-05  9.4285714    
     63100   0.0004951308   0              2.6628997e-05  1.8450352e-05  6.3832011e-05  9.4285714    
     63200   0.00050062712  0              2.9461193e-05  1.8894883e-05  5.3709621e-05  9.4285714    
     63300   0.00050139893  0              2.4412715e-05  2.1523377e-05  6.3687974e-05  9.4285714    
     63400   0.00048447114  0              2.7417779e-05  2.1992864e-05  6.9868247e-05  9.4285714    
     63500   0.00047978034  0              3.0555223e-05  2.6931303e-05  6.1387264e-05  9.4285714    
     63600   0.00049427346  0              1.9450584e-05  2.57919e-05    6.2763612e-05  9.4285714    
     63700   0.0004901157   0              1.8042785e-05  2.4269181e-05  6.3857894e-05  9.4285714    
     63800   0.00047694742  0              2.9321344e-05  2.6189306e-05  6.6770234e-05  9.4285714    
     63900   0.00048601419  0              2.6979337e-05  2.7149374e-05  6.8186957e-05  9.4285714    
     64000   0.00049649147  0              2.3935534e-05  2.7256362e-05  6.3734437e-05  9.4285714    
     64100   0.00048920908  0              3.2116897e-05  2.4108499e-05  7.0256211e-05  9.4285714    
     64200   0.00047495846  0              3.8975693e-05  2.630817e-05   7.1653523e-05  9.4285714    
     64300   0.00048317212  0              3.6421737e-05  3.0275882e-05  6.7249521e-05  9.4285714    
     64400   0.00048577809  0              3.1436413e-05  2.4999089e-05  6.8161034e-05  9.4285714    
     64500   0.00048135814  0              2.756429e-05   2.1451536e-05  6.6148018e-05  9.4285714    
     64600   0.00047337605  0              2.7900388e-05  2.4744334e-05  6.5642657e-05  9.4285714    
     64700   0.00047561605  0              2.5014245e-05  2.6330051e-05  5.9888487e-05  9.4285714    
     64800   0.00047768906  0              2.2184281e-05  2.7752063e-05  5.4367213e-05  9.4285714    
     64900   0.00047150997  0              2.4737436e-05  2.5849715e-05  5.8167365e-05  9.4285714    
     65000   0.00047348923  0              2.4609009e-05  2.4526544e-05  5.84653e-05    9.4285714    
     65100   0.00047838104  0              2.1185933e-05  2.3385614e-05  6.0539391e-05  9.4285714    
     65200   0.00046686     0              2.5688303e-05  2.7353928e-05  7.3479213e-05  9.4285714    
     65300   0.00045592385  0              3.070139e-05   2.8995365e-05  7.0741174e-05  9.4285714    
     65400   0.00044397472  0              2.2926914e-05  2.8384032e-05  7.4501644e-05  9.4285714    
     65500   0.00044322001  0              2.3879269e-05  3.3834666e-05  7.7595057e-05  9.4285714    
     65600   0.00043965697  0              2.485101e-05   3.4572558e-05  6.4914566e-05  9.4285714    
     65700   0.00042087138  0              2.702303e-05   3.3273171e-05  7.1716743e-05  9.4285714    
     65800   0.00041027634  0              3.4829915e-05  3.631925e-05   8.30961e-05    9.4285714    
     65900   0.00041485923  0              3.0790557e-05  3.3132684e-05  7.0068508e-05  9.4285714    
     66000   0.00040462812  0              3.5225732e-05  3.045457e-05   6.7459266e-05  9.4285714    
     66100   0.00039426331  0              3.479407e-05   3.4904978e-05  8.3549323e-05  9.4285714    
     66200   0.00039250839  0              3.3733262e-05  3.3376075e-05  7.9049984e-05  9.4285714    
     66300   0.00038475689  0              4.1363564e-05  3.3611761e-05  6.6102481e-05  9.4285714    
     66400   0.00037815986  0              3.9786022e-05  3.9563847e-05  7.4132245e-05  9.4285714    
     66500   0.00036499659  0              4.1366528e-05  3.9700917e-05  7.7686492e-05  9.4285714    
     66600   0.00035284331  0              4.666029e-05   5.3783978e-05  8.0530891e-05  9.4285714    
     66700   0.00034261186  0              3.8553503e-05  5.509834e-05   7.821729e-05   9.4285714    
     66800   0.0003324884   0              3.3118047e-05  4.3094514e-05  6.5077394e-05  9.4285714    
     66900   0.0003277956   0              3.526711e-05   4.1110476e-05  6.3572994e-05  9.4285714    
     67000   0.00033650288  0              3.3407364e-05  4.2227125e-05  6.114382e-05   9.4285714    
     67100   0.00034239114  0              3.2749548e-05  4.1180924e-05  5.881852e-05   9.4285714    
     67200   0.00033167021  0              3.5105016e-05  4.0847444e-05  5.628596e-05   9.4285714    
     67300   0.00033122027  0              3.9806624e-05  3.9493968e-05  5.5932217e-05  9.4285714    
     67400   0.00032577352  0              3.8152397e-05  4.8295411e-05  5.7978173e-05  9.4285714    
     67500   0.00031506675  0              4.1986283e-05  5.1269447e-05  6.1788674e-05  9.4285714    
     67600   0.00029844955  0              4.2582158e-05  4.078476e-05   6.4090753e-05  9.4285714    
     67700   0.00029373946  0              3.5572883e-05  4.2390139e-05  6.2050343e-05  9.4285714    
     67800   0.00029756719  0              3.9931159e-05  4.377586e-05   6.4745394e-05  9.4285714    
     67900   0.00027242868  0              3.7385175e-05  5.2277573e-05  7.5324716e-05  9.4285714    
     68000   0.0002375432   0              3.2657468e-05  5.8891619e-05  8.0328699e-05  9.4285714    
     68100   0.00022336944  0              3.8163955e-05  4.264584e-05   6.9890065e-05  9.4285714    
     68200   0.0002394125   0              4.2265311e-05  5.0374122e-05  6.0693337e-05  9.4285714    
     68300   0.00023458425  0              3.8489054e-05  4.210798e-05   5.8936828e-05  9.4285714    
     68400   0.00022593675  0              3.8487469e-05  4.6709627e-05  5.3084678e-05  9.4285714    
     68500   0.00021122659  0              4.2002335e-05  5.0682585e-05  5.3442368e-05  9.4285714    
     68600   0.00019037881  0              4.7612474e-05  4.5901841e-05  6.7055416e-05  9.4285714    
     68700   0.00016229105  0              4.5624704e-05  6.4233086e-05  7.8690738e-05  9.4285714    
     68800   0.00016661853  0              3.8121124e-05  5.363946e-05   8.9823479e-05  9.4285714    
     68900   0.00016247396  0              3.38414e-05    3.1297733e-05  8.5338211e-05  9.4285714    
     69000   0.00015179485  0              4.0162341e-05  4.2235387e-05  7.4654173e-05  9.4285714    
     69100   0.00015169157  0              4.4394807e-05  2.8305662e-05  6.3294941e-05  9.4285714    
     69200   0.00014178767  0              4.0618111e-05  2.2793402e-05  6.24278e-05    9.4285714    
     69300   0.00012969162  0              4.0775754e-05  4.6133374e-05  7.0939893e-05  9.4285714    
     69400   0.00012071471  0              4.3368142e-05  3.3640709e-05  6.3643499e-05  9.4285714    
     69500   0.0001146975   0              4.0676483e-05  3.9504332e-05  5.9807616e-05  9.4285714    
     69600   0.00010556571  0              4.1039291e-05  3.9615635e-05  6.3643545e-05  9.4285714    
     69700   0.00010486735  0              3.4519103e-05  3.2546644e-05  5.6764861e-05  9.4285714    
     69800   0.00010434767  0              3.0937411e-05  3.9647266e-05  5.3569378e-05  9.4285714    
     69900   0.00010027608  0              3.4520432e-05  3.0972554e-05  5.1940604e-05  9.4285714    
     70000   9.4667667e-05  0              3.3924618e-05  3.4918364e-05  4.8498053e-05  9.4285714    
     70100   8.9366625e-05  0              3.911498e-05   3.3808428e-05  4.8584204e-05  9.4285714    
     70200   8.8516331e-05  0              3.9452984e-05  2.3079957e-05  4.696871e-05   9.4285714    
     70300   8.938838e-05   0              3.1788796e-05  3.7168646e-05  4.1707638e-05  9.4285714    
     70400   8.4850023e-05  0              3.7628834e-05  3.7536056e-05  3.5846252e-05  9.4285714    
     70500   8.0956996e-05  0              3.8842029e-05  2.8364414e-05  3.2397126e-05  9.4285714    
     70600   8.1567226e-05  0              3.3018333e-05  2.7507104e-05  3.1872387e-05  9.4285714    
     70700   8.0381978e-05  0              3.0630896e-05  2.0105597e-05  3.1770456e-05  9.4285714    
     70800   8.0222191e-05  0              2.7029631e-05  2.0864787e-05  2.9478803e-05  9.4285714    
     70900   7.8624451e-05  0              2.3613202e-05  2.4774487e-05  2.6767605e-05  9.4285714    
     71000   7.1624346e-05  0              2.3698403e-05  2.4556743e-05  2.8087535e-05  9.4285714    
     71100   6.6463841e-05  0              2.3364968e-05  2.8081912e-05  2.5543773e-05  9.4285714    
     71200   6.6538222e-05  0              2.0469822e-05  2.2122674e-05  2.1689827e-05  9.4285714    
     71300   6.676336e-05   0              1.9173852e-05  1.8819111e-05  2.194277e-05   9.4285714    
     71400   6.5684586e-05  0              2.0545463e-05  2.3611505e-05  2.1874371e-05  9.4285714    
     71500   6.244042e-05   0              2.1992758e-05  2.2981981e-05  2.1660398e-05  9.4285714    
     71600   5.9367959e-05  0              2.1860341e-05  2.3846776e-05  2.1276858e-05  9.4285714    
     71700   5.8051241e-05  0              1.9910901e-05  2.5898889e-05  2.084689e-05   9.4285714    
     71800   5.7950593e-05  0              1.6565616e-05  2.2043471e-05  2.1570135e-05  9.4285714    
     71900   5.7161841e-05  0              1.5234725e-05  2.0222147e-05  2.2605045e-05  9.4285714    
     72000   5.4570031e-05  0              1.7006943e-05  1.9623036e-05  2.3239161e-05  9.4285714    
     72100   5.2590194e-05  0              1.8579432e-05  1.7928822e-05  2.3217644e-05  9.4285714    
     72200   5.0954671e-05  0              1.8271811e-05  1.9071654e-05  2.1147198e-05  9.4285714    
     72300   4.9399541e-05  0              1.8071208e-05  1.7124978e-05  1.9359994e-05  9.4285714    
     72400   4.9995256e-05  0              1.6891462e-05  1.5070439e-05  1.953487e-05   9.4285714    
     72500   4.7598717e-05  0              1.6513835e-05  1.6370284e-05  1.9587024e-05  9.4285714    
     72600   4.2483775e-05  0              1.867585e-05   1.7289599e-05  2.08997e-05    9.4285714    
     72700   4.1166149e-05  0              1.8084762e-05  1.7773807e-05  2.0571475e-05  9.4285714    
     72800   4.1265323e-05  0              1.6418316e-05  1.7934951e-05  1.7621087e-05  9.4285714    
     72900   3.8883184e-05  0              1.4842738e-05  1.7349368e-05  1.7558007e-05  9.4285714    
     73000   3.7853766e-05  0              1.3020247e-05  1.630628e-05   1.7848196e-05  9.4285714    
     73100   3.7886089e-05  0              1.3532398e-05  1.595487e-05   1.5829667e-05  9.4285714    
     73200   3.6233583e-05  0              1.5292934e-05  1.646088e-05   1.5363762e-05  9.4285714    
     73300   3.5327118e-05  0              1.542281e-05   1.4857174e-05  1.6977865e-05  9.4285714    
     73400   3.5028251e-05  0              1.5529593e-05  1.4125725e-05  1.8100113e-05  9.4285714    
     73500   3.5280241e-05  0              1.5430984e-05  1.531323e-05   1.6172979e-05  9.4285714    
     73600   3.5452801e-05  0              1.4643468e-05  1.3843214e-05  1.5685451e-05  9.4285714    
     73700   3.5687526e-05  0              1.4745493e-05  1.3285627e-05  1.6046845e-05  9.4285714    
     73800   3.4986663e-05  0              1.6246342e-05  1.5047051e-05  1.6868345e-05  9.4285714    
     73900   3.2282568e-05  0              1.6220437e-05  1.3388184e-05  2.1932412e-05  9.4285714    
     74000   3.1117596e-05  0              1.5306764e-05  1.3882456e-05  2.3867036e-05  9.4285714    
     74100   2.9439175e-05  0              1.4636591e-05  1.609711e-05   2.3696917e-05  9.4285714    
     74200   2.8834198e-05  0              1.5258518e-05  1.3253909e-05  2.6495743e-05  9.4285714    
     74300   2.9086586e-05  0              1.4321218e-05  1.2653553e-05  2.4874275e-05  9.4285714    
     74400   2.8087585e-05  0              1.3756031e-05  1.2925145e-05  2.3478669e-05  9.4285714    
     74500   2.8902792e-05  0              1.4377871e-05  1.3379362e-05  2.354043e-05   9.4285714    
     74600   2.8332529e-05  0              1.3870538e-05  1.4960389e-05  2.1802155e-05  9.4285714    
     74700   2.7889584e-05  0              1.3400198e-05  1.4427326e-05  2.4530647e-05  9.4285714    
     74800   2.6435242e-05  0              1.348739e-05   1.4462951e-05  2.5759462e-05  9.4285714    
     74900   2.5098935e-05  0              1.4618771e-05  1.5728822e-05  2.5288231e-05  9.4285714    
     75000   2.4865457e-05  0              1.6588834e-05  1.595056e-05   2.7032513e-05  9.4285714    
[...]
     81700   9.4995203e-06  0              1.8777588e-05  1.6682343e-05  2.2648301e-05  9.4285714    
     81800   9.2138911e-06  0              1.7805674e-05  1.6815859e-05  2.1853149e-05  9.4285714    
     81900   8.9865042e-06  0              1.710424e-05   1.6320131e-05  2.2059023e-05  9.4285714    
     82000   8.7686497e-06  0              1.6452477e-05  1.6168032e-05  2.2799159e-05  9.4285714    
     82100   8.5361642e-06  0              1.6678933e-05  1.6763963e-05  2.4876051e-05  9.4285714    
     82200   8.0817014e-06  0              1.7494924e-05  1.6959852e-05  2.6660502e-05  9.4285714    
     82300   8.017532e-06   0              1.7707169e-05  1.6820276e-05  2.70571e-05    9.4285714    
     82400   8.4331535e-06  0              1.7498288e-05  1.6434774e-05  2.7250073e-05  9.4285714    
     82500   8.6775268e-06  0              1.7562034e-05  1.6200728e-05  2.7059472e-05  9.4285714    
     82600   8.7105032e-06  0              1.8068671e-05  1.6528428e-05  2.6778931e-05  9.4285714    
     82700   8.7023511e-06  0              1.9047357e-05  1.7070445e-05  2.6510837e-05  9.4285714    
     82800   8.6760089e-06  0              1.9744825e-05  1.8495172e-05  2.5959251e-05  9.4285714    
     82900   8.7035415e-06  0              1.9944061e-05  1.8940404e-05  2.5509284e-05  9.4285714    
     83000   8.6686195e-06  0              1.9409972e-05  1.8066893e-05  2.5055154e-05  9.4285714    
     83100   8.8930733e-06  0              1.8500763e-05  1.7748431e-05  2.4765229e-05  9.4285714    
     83200   9.183272e-06   0              1.7993736e-05  1.7226872e-05  2.515568e-05   9.4285714    
     83300   8.794759e-06   0              1.9521767e-05  1.7581906e-05  2.7294245e-05  9.4285714    
     83400   7.8919819e-06  0              2.1286271e-05  1.8313898e-05  3.0145178e-05  9.4285714    
     83500   7.3611036e-06  0              2.2011282e-05  1.7761285e-05  3.1637707e-05  9.4285714    
     83600   7.3886162e-06  0              2.241376e-05   1.7852504e-05  3.1890147e-05  9.4285714    
     83700   7.5492719e-06  0              2.1923394e-05  1.9030341e-05  3.1129441e-05  9.4285714    
     83800   7.5391515e-06  0              2.1100292e-05  2.0189536e-05  2.9766151e-05  9.4285714    
     83900   7.4528953e-06  0              2.1167488e-05  2.0293223e-05  2.9248415e-05  9.4285714    
     84000   7.3444008e-06  0              2.1321388e-05  1.985356e-05   2.9439591e-05  9.4285714    
     84100   7.294419e-06   0              2.1497494e-05  2.0328581e-05  2.9851159e-05  9.4285714    
     84200   7.2556229e-06  0              2.2356421e-05  2.0734903e-05  3.0680344e-05  9.4285714    
     84300   7.1861638e-06  0              2.2281285e-05  2.0137766e-05  3.0701832e-05  9.4285714    
     84400   7.2421878e-06  0              2.2053202e-05  2.0203929e-05  3.0734527e-05  9.4285714    
     84500   7.1312984e-06  0              2.2181098e-05  2.0494518e-05  3.1259943e-05  9.4285714    
     84600   7.0639247e-06  0              2.1846579e-05  2.0415534e-05  3.1272592e-05  9.4285714    
     84700   6.9970911e-06  0              2.1912939e-05  2.0728162e-05  3.1483503e-05  9.4285714    
     84800   6.7833544e-06  0              2.1838079e-05  2.1083851e-05  3.1615804e-05  9.4285714    
     84900   6.696088e-06   0              2.1251606e-05  2.1404886e-05  3.1055904e-05  9.4285714    
     85000   6.8508026e-06  0              2.1604247e-05  2.1957736e-05  3.0822644e-05  9.4285714    
     85100   7.0149035e-06  0              2.2133425e-05  2.225083e-05   3.0294813e-05  9.4285714    
     85200   6.9651462e-06  0              2.2784248e-05  2.2233831e-05  3.0020651e-05  9.4285714    
     85300   7.0230356e-06  0              2.2960553e-05  2.181369e-05   3.0101629e-05  9.4285714    
     85400   7.2096406e-06  0              2.2670753e-05  2.1279021e-05  2.9421304e-05  9.4285714    
     85500   7.2605887e-06  0              2.2868672e-05  2.1007489e-05  2.8638663e-05  9.4285714    
     85600   7.3183029e-06  0              2.2299861e-05  2.0839905e-05  2.8423112e-05  9.4285714    
     85700   7.3670005e-06  0              2.1544825e-05  2.0667082e-05  2.812385e-05   9.4285714    
     85800   7.2882647e-06  0              2.1233339e-05  2.0588127e-05  2.7913544e-05  9.4285714    
     85900   7.2003978e-06  0              2.0318834e-05  2.0508954e-05  2.7430534e-05  9.4285714    
     86000   7.1315335e-06  0              1.9661231e-05  2.0404432e-05  2.6976168e-05  9.4285714    
     86100   7.0750585e-06  0              1.9767711e-05  2.0804133e-05  2.6762049e-05  9.4285714    
     86200   7.0341386e-06  0              1.9748667e-05  2.1899833e-05  2.6333865e-05  9.4285714    
     86300   7.0621992e-06  0              1.969107e-05   2.2443415e-05  2.5936586e-05  9.4285714    
     86400   7.0494445e-06  0              1.9852895e-05  2.2258942e-05  2.5708929e-05  9.4285714    
     86500   6.8256561e-06  0              2.0536252e-05  2.2334343e-05  2.5959072e-05  9.4285714    
     86600   6.6354092e-06  0              2.1319851e-05  2.2420743e-05  2.6593505e-05  9.4285714    
     86700   5.9502201e-06  0              2.0925216e-05  2.2481441e-05  2.8247753e-05  9.4285714    
     86800   5.0433782e-06  0              2.0868937e-05  2.2456933e-05  2.9780502e-05  9.4285714    
     86900   4.7791085e-06  0              2.1331638e-05  2.203957e-05   2.8996239e-05  9.4285714    
     87000   5.2179655e-06  0              2.1080689e-05  2.1909804e-05  2.8251242e-05  9.4285714    
     87100   5.8865496e-06  0              2.1062246e-05  2.1895473e-05  2.7400298e-05  9.4285714    
     87200   6.0718291e-06  0              2.0638254e-05  2.1764508e-05  2.586378e-05   9.4285714    
     87300   5.9929014e-06  0              2.001027e-05   2.1494448e-05  2.5611661e-05  9.4285714    
     87400   6.1339499e-06  0              2.0010532e-05  2.0883997e-05  2.5511522e-05  9.4285714    
     87500   6.3029072e-06  0              1.9902553e-05  2.0681155e-05  2.531436e-05   9.4285714    
     87600   6.1772463e-06  0              2.051441e-05   2.1678171e-05  2.5834346e-05  9.4285714    
     87700   5.8200423e-06  0              2.1579628e-05  2.2224969e-05  2.6185225e-05  9.4285714    
     87800   5.6493695e-06  0              2.1819144e-05  2.2470168e-05  2.6517709e-05  9.4285714    
     87900   5.465527e-06   0              2.2194561e-05  2.2408607e-05  2.6655838e-05  9.4285714    
     88000   5.4543415e-06  0              2.2471281e-05  2.1557236e-05  2.7004515e-05  9.4285714    
     88100   5.5323837e-06  0              2.2456044e-05  2.1106171e-05  2.7761828e-05  9.4285714    
     88200   5.4963478e-06  0              2.240858e-05   2.1058851e-05  2.8532985e-05  9.4285714    
     88300   5.2815601e-06  0              2.2091591e-05  2.1111869e-05  2.915992e-05   9.4285714    
     88400   4.9454478e-06  0              2.1932139e-05  2.1722939e-05  2.987211e-05   9.4285714    
     88500   4.9243003e-06  0              2.1777236e-05  2.1808198e-05  3.0307574e-05  9.4285714    
     88600   4.9702809e-06  0              2.1823872e-05  2.1395586e-05  3.0738462e-05  9.4285714    
     88700   4.8102932e-06  0              2.2089224e-05  2.155389e-05   3.0606904e-05  9.4285714    
     88800   4.6497905e-06  0              2.2174837e-05  2.1529784e-05  3.0434735e-05  9.4285714    
     88900   4.2490768e-06  0              2.2290407e-05  2.1394443e-05  3.069309e-05   9.4285714    
     89000   3.7406675e-06  0              2.1919483e-05  2.1325379e-05  3.0448828e-05  9.4285714    
     89100   3.4408336e-06  0              2.1777248e-05  2.1220789e-05  2.9986424e-05  9.4285714    
     89200   3.4842643e-06  0              2.1877446e-05  2.1127243e-05  2.9526728e-05  9.4285714    
     89300   3.7134604e-06  0              2.2019849e-05  2.1054862e-05  2.8853298e-05  9.4285714    
     89400   3.8571265e-06  0              2.2187429e-05  2.0956739e-05  2.8321646e-05  9.4285714    
     89500   3.8536004e-06  0              2.1656647e-05  2.0500139e-05  2.7701918e-05  9.4285714    
     89600   3.7115928e-06  0              2.1542247e-05  2.0001398e-05  2.733073e-05   9.4285714    
     89700   3.7955347e-06  0              2.1877115e-05  1.9819842e-05  2.726407e-05   9.4285714    
     89800   3.7849716e-06  0              2.116844e-05   2.014988e-05   2.7000733e-05  9.4285714    
     89900   3.4645398e-06  0              2.0736141e-05  2.0999156e-05  2.6833381e-05  9.4285714    
     90000   3.386906e-06   0              2.1455949e-05  2.1399923e-05  2.6693976e-05  9.4285714    
     90100   3.6353462e-06  0              2.2099428e-05  2.0873464e-05  2.6559161e-05  9.4285714    
     90200   3.6234028e-06  0              2.24652e-05    2.058986e-05   2.6947788e-05  9.4285714    
     90300   3.3058024e-06  0              2.2619641e-05  2.157048e-05   2.6886209e-05  9.4285714    
     90400   3.028682e-06   0              2.2589611e-05  2.2093753e-05  2.654515e-05   9.4285714    
     90500   2.8968918e-06  0              2.2513869e-05  2.1958063e-05  2.6640534e-05  9.4285714    
     90600   2.7822251e-06  0              2.2499733e-05  2.2241335e-05  2.6491637e-05  9.4285714    
     90700   2.6879098e-06  0              2.2719355e-05  2.2105617e-05  2.6728454e-05  9.4285714    
     90800   2.6716599e-06  0              2.2978305e-05  2.1885994e-05  2.6654611e-05  9.4285714    
     90900   2.5961937e-06  0              2.2576732e-05  2.2001322e-05  2.6084793e-05  9.4285714    
     91000   2.524828e-06   0              2.2374063e-05  2.1390562e-05  2.6205589e-05  9.4285714    
     91100   2.5581597e-06  0              2.2179013e-05  2.086611e-05   2.6384727e-05  9.4285714    
     91200   2.5683145e-06  0              2.2017655e-05  2.0892605e-05  2.6345225e-05  9.4285714    
     91300   2.4521274e-06  0              2.2345825e-05  2.1029635e-05  2.6363279e-05  9.4285714    
     91400   2.2077642e-06  0              2.2056e-05     2.1238725e-05  2.614673e-05   9.4285714    
     91500   2.0511098e-06  0              2.1729796e-05  2.1403068e-05  2.6076671e-05  9.4285714    
     91600   2.1041469e-06  0              2.1281714e-05  2.1017236e-05  2.6195529e-05  9.4285714    
     91700   2.1957074e-06  0              2.0532362e-05  2.0472419e-05  2.6477361e-05  9.4285714    
     91800   2.3908373e-06  0              2.0431891e-05  1.9937375e-05  2.6504059e-05  9.4285714    
     91900   2.6555803e-06  0              2.0154083e-05  1.9587738e-05  2.6337683e-05  9.4285714    
     92000   2.7663254e-06  0              1.9576333e-05  1.948033e-05   2.6197279e-05  9.4285714    
     92100   2.667362e-06   0              1.9468577e-05  1.951981e-05   2.6336045e-05  9.4285714    
     92200   2.4659338e-06  0              1.9085472e-05  1.9862633e-05  2.7397223e-05  9.4285714    
     92300   2.2198432e-06  0              1.8870397e-05  2.0001914e-05  2.8190498e-05  9.4285714    
     92400   1.8984686e-06  0              1.8916426e-05  1.9937357e-05  2.8810019e-05  9.4285714    
     92500   1.7198787e-06  0              1.9307633e-05  2.0082631e-05  2.9841954e-05  9.4285714    
     92600   1.694353e-06   0              1.9749783e-05  2.034271e-05   2.993753e-05   9.4285714    
     92700   1.584529e-06   0              1.9915011e-05  2.0781651e-05  2.9700349e-05  9.4285714    
     92800   1.4044343e-06  0              2.0564867e-05  2.1122551e-05  2.945706e-05   9.4285714    
     92900   1.2665053e-06  0              2.1088273e-05  2.1063428e-05  2.8856821e-05  9.4285714    
     93000   1.1706075e-06  0              2.099797e-05   2.086136e-05   2.9038558e-05  9.4285714    
     93100   1.1763625e-06  0              2.1082906e-05  2.0776994e-05  2.9560005e-05  9.4285714    
     93200   1.1100296e-06  0              2.1233131e-05  2.1029529e-05  2.948191e-05   9.4285714    
     93300   1.0476407e-06  0              2.1360185e-05  2.134174e-05   2.9230776e-05  9.4285714    
     93400   1.0023462e-06  0              2.1483262e-05  2.1349561e-05  2.8873944e-05  9.4285714    
     93500   9.3792364e-07  0              2.1460491e-05  2.1416285e-05  2.8341449e-05  9.4285714    
     93600   9.2760609e-07  0              2.1265287e-05  2.1129004e-05  2.7977468e-05  9.4285714    
     93700   8.9890513e-07  0              2.1139643e-05  2.083664e-05   2.7987578e-05  9.4285714    
     93800   8.5455298e-07  0              2.1209061e-05  2.0839422e-05  2.8166541e-05  9.4285714    
     93900   8.5054017e-07  0              2.1167235e-05  2.0685989e-05  2.7873814e-05  9.4285714    
     94000   8.3591156e-07  0              2.1208306e-05  2.0914137e-05  2.746879e-05   9.4285714    
     94100   7.924707e-07   0              2.1468766e-05  2.1308627e-05  2.7302548e-05  9.4285714    
     94200   7.3044151e-07  0              2.1360225e-05  2.1508672e-05  2.6794652e-05  9.4285714    
     94300   6.821312e-07   0              2.1089342e-05  2.1509409e-05  2.6275547e-05  9.4285714    
     94400   6.5371203e-07  0              2.0980296e-05  2.100372e-05   2.5972368e-05  9.4285714    
     94500   6.5161409e-07  0              2.0816179e-05  2.0499481e-05  2.5695015e-05  9.4285714    
     94600   6.5800483e-07  0              2.0826779e-05  2.0346534e-05  2.5705131e-05  9.4285714    
     94700   6.4558289e-07  0              2.0869021e-05  2.0186747e-05  2.5683166e-05  9.4285714    
     94800   6.2905882e-07  0              2.0839355e-05  2.0169366e-05  2.5471349e-05  9.4285714    
     94900   6.0933241e-07  0              2.084934e-05   2.0229522e-05  2.5265751e-05  9.4285714    
     95000   6.0966876e-07  0              2.0632878e-05  2.0250548e-05  2.519609e-05   9.4285714    
     95100   6.2560866e-07  0              2.0430001e-05  2.0444891e-05  2.5257748e-05  9.4285714    
     95200   6.3054915e-07  0              2.031059e-05   2.0620504e-05  2.5410364e-05  9.4285714    
     95300   6.4263069e-07  0              1.999852e-05   2.0652295e-05  2.5423223e-05  9.4285714    
     95400   6.654932e-07   0              1.989867e-05   2.0624783e-05  2.5423088e-05  9.4285714    
     95500   6.8015154e-07  0              1.9870817e-05  2.0431696e-05  2.5500688e-05  9.4285714    
     95600   6.810534e-07   0              1.9774661e-05  2.0292439e-05  2.5553838e-05  9.4285714    
     95700   6.6567852e-07  0              1.9721388e-05  2.0207128e-05  2.5755047e-05  9.4285714    
     95800   6.4797415e-07  0              1.9771399e-05  2.023216e-05   2.5915032e-05  9.4285714    
     95900   6.2884717e-07  0              1.967111e-05   2.0313471e-05  2.5977707e-05  9.4285714    
     96000   6.0337073e-07  0              1.9661756e-05  2.0340062e-05  2.6168446e-05  9.4285714    
     96100   5.9040143e-07  0              1.975692e-05   2.046911e-05   2.6465242e-05  9.4285714    
     96200   5.7802129e-07  0              1.9796237e-05  2.0664824e-05  2.6731604e-05  9.4285714    
     96300   5.5414297e-07  0              1.9784672e-05  2.0829017e-05  2.688432e-05   9.4285714    
     96400   5.4574244e-07  0              1.9840582e-05  2.1008332e-05  2.6925443e-05  9.4285714    
     96500   5.3731885e-07  0              2.0097819e-05  2.1203865e-05  2.7002012e-05  9.4285714    
     96600   4.974724e-07   0              2.0437682e-05  2.1402631e-05  2.716375e-05   9.4285714    
     96700   4.4674948e-07  0              2.0743202e-05  2.1552329e-05  2.7373922e-05  9.4285714    
     96800   4.3263598e-07  0              2.0966425e-05  2.1680258e-05  2.7588497e-05  9.4285714    
     96900   4.4919785e-07  0              2.1055522e-05  2.1828778e-05  2.7776549e-05  9.4285714    
     97000   4.5479534e-07  0              2.1169798e-05  2.1896262e-05  2.8078112e-05  9.4285714    
     97100   4.3548954e-07  0              2.1302757e-05  2.1924869e-05  2.8310152e-05  9.4285714    
     97200   3.9635971e-07  0              2.1453242e-05  2.2056333e-05  2.8453022e-05  9.4285714    
     97300   3.3882521e-07  0              2.1525928e-05  2.2237463e-05  2.8590472e-05  9.4285714    
     97400   2.8835288e-07  0              2.1514713e-05  2.2426042e-05  2.8647779e-05  9.4285714    
     97500   2.7695388e-07  0              2.1440511e-05  2.2522914e-05  2.8737576e-05  9.4285714    
     97600   2.9271716e-07  0              2.1264817e-05  2.244918e-05   2.8860049e-05  9.4285714    
     97700   3.0747638e-07  0              2.1090164e-05  2.228622e-05   2.8844019e-05  9.4285714    
     97800   3.1570767e-07  0              2.1077143e-05  2.212163e-05   2.8831335e-05  9.4285714    
     97900   3.2132516e-07  0              2.1165049e-05  2.198699e-05   2.8747922e-05  9.4285714    
     98000   3.1715511e-07  0              2.121151e-05   2.1856188e-05  2.857762e-05   9.4285714    
     98100   3.0391432e-07  0              2.1184326e-05  2.174681e-05   2.8373195e-05  9.4285714    
     98200   2.9704049e-07  0              2.1105499e-05  2.1706505e-05  2.814912e-05   9.4285714    
     98300   2.9578091e-07  0              2.1068276e-05  2.1748184e-05  2.7935897e-05  9.4285714    
     98400   2.9547597e-07  0              2.1129569e-05  2.1856323e-05  2.7751798e-05  9.4285714    
     98500   3.0367605e-07  0              2.1181799e-05  2.1927592e-05  2.7579261e-05  9.4285714    
     98600   3.2091149e-07  0              2.1134546e-05  2.1885836e-05  2.7344171e-05  9.4285714    
     98700   3.3451563e-07  0              2.1002891e-05  2.1738759e-05  2.7100065e-05  9.4285714    
     98800   3.3707492e-07  0              2.0831894e-05  2.1566143e-05  2.6855406e-05  9.4285714    
     98900   3.342094e-07   0              2.0634792e-05  2.1425153e-05  2.6594469e-05  9.4285714    
     99000   3.2923236e-07  0              2.0469304e-05  2.1316379e-05  2.6392796e-05  9.4285714    
     99100   3.2052048e-07  0              2.0417005e-05  2.1253677e-05  2.6182803e-05  9.4285714    
     99200   3.1336052e-07  0              2.0442549e-05  2.1204812e-05  2.6004085e-05  9.4285714    
     99300   3.1600385e-07  0              2.0483697e-05  2.1161629e-05  2.579731e-05   9.4285714    
     99400   3.2652895e-07  0              2.0498384e-05  2.1136909e-05  2.5555003e-05  9.4285714    
     99500   3.3570572e-07  0              2.0510911e-05  2.1072202e-05  2.53301e-05    9.4285714    
     99600   3.4192547e-07  0              2.0494251e-05  2.0969646e-05  2.513629e-05   9.4285714    
     99700   3.4987655e-07  0              2.0481605e-05  2.0838694e-05  2.5044826e-05  9.4285714    
     99800   3.5945628e-07  0              2.0492649e-05  2.0736961e-05  2.5030449e-05  9.4285714    
     99900   3.6918756e-07  0              2.0467479e-05  2.0690204e-05  2.5033313e-05  9.4285714    
    100000   3.8236718e-07  0              2.0415151e-05  2.0660632e-05  2.5078386e-05  9.4285714    
Loop time of 225.216 on 4 procs for 100000 steps with 2520 atoms

Performance: 1918160.231 tau/day, 444.019 timesteps/s, 1.119 Matom-step/s
99.7% CPU use with 4 MPI tasks x no OpenMP threads

MPI task timing breakdown:
Section |  min time  |  avg time  |  max time  |%varavg| %total
---------------------------------------------------------------
Pair    | 0.020345   | 0.85647    | 3.189      | 145.6 |  0.38
Bond    | 198.19     | 201.69     | 203.39     |  14.6 | 89.56
Neigh   | 2.6271     | 2.648      | 2.6681     |   0.9 |  1.18
Comm    | 0.91343    | 1.595      | 2.4363     |  50.1 |  0.71
Output  | 0.092549   | 0.14512    | 0.16805    |   8.0 |  0.06
Modify  | 0.645      | 5.7837     | 18.229     | 299.8 |  2.57
Other   |            | 12.49      |            |       |  5.55

Nlocal:            630 ave        2514 max           0 min
Histogram: 3 0 0 0 0 0 0 0 0 1
Nghost:           64.5 ave         252 max           0 min
Histogram: 3 0 0 0 0 0 0 0 0 1
Neighs:        2433.75 ave        9731 max           0 min
Histogram: 3 0 0 0 0 0 0 0 0 1

Total # of neighbors = 9735
Ave neighs/atom = 3.8630952
Ave special neighs/atom = 36.31746
Neighbor list builds = 4842
Dangerous builds = 0
Total wall time: 0:03:45
